********************************************************************************
*                       GENERAL UTILITY LATTICE PROGRAM                        *
*                                 Julian Gale                                  *
*                      Nanochemistry Research Institute                        *
*                           Department of Chemistry                            *
*                    Curtin University, Western Australia                      *
********************************************************************************
* Version = 4.0.3 * Last modified =  20th April 2012                           *
********************************************************************************
*  single       - perform a single point run                                   *
*  QEq          - electronegativity equalisation (Rappe and Goddard III method)*
********************************************************************************

  Job Started  at 12:20.20 18th December   2012                               

  Number of CPUs =     1

  Host name      = nhpc15                                  


  Total number of configurations input =   1

********************************************************************************
*  Input for Configuration =   1                                               *
********************************************************************************

  Formula = Ti2O4                                                       

  Number of irreducible atoms/shells =       2


  Total number atoms/shells =       6

  Dimensionality = 3               :  Bulk   


  Symmetry :

  Crystal family                   :  Tetragonal  
  Crystal class  (Groth - 1921)    :  Ditetragonal Dipyramidal             

  Space group (centrosymmetric)    :  I 41/A M D      

  Patterson group                  :  I 4/m m m

  Cartesian lattice vectors (Angstroms) :

       -1.897114    1.897114    4.884209
        1.897114   -1.897114    4.884209
        1.897114    1.897114   -4.884209

  Primitive cell parameters :            Full cell parameters :

  a =   5.5726    alpha = 140.1929       a =   3.7942    alpha =  90.0000
  b =   5.5726    beta  = 140.1929       b =   3.7942    beta  =  90.0000
  c =   5.5726    gamma =  57.5605       c =   9.7684    gamma =  90.0000

  Initial volumes (Angstroms**3):

  Primitive cell =          70.313884    Full cell =         140.627768

  Temperature of configuration =  0.000     K 

  Pressure of configuration =         0.000 GPa 

  Fractional coordinates of asymmetric unit :

--------------------------------------------------------------------------------
   No.  Atomic       x           y          z         Charge      Occupancy
        Label      (Frac)      (Frac)     (Frac)        (e)         (Frac)  
--------------------------------------------------------------------------------
      1 Ti    c    0.000000    0.000000    0.000000     0.00000    1.000000    
      2 O     c    0.000000    0.000000    0.204740     0.00000    1.000000    
--------------------------------------------------------------------------------



********************************************************************************
*  General input information                                                   *
********************************************************************************

  Species output for all configurations : 

--------------------------------------------------------------------------------
  Species    Type    Atomic    Atomic    Charge       Radii (Angs)     Library
                     Number     Mass       (e)     Cova   Ionic  VDW   Symbol
--------------------------------------------------------------------------------
    Ti       Core       22      47.88   0.000000   1.470  0.000  2.190          
    O        Core        8      16.00   0.000000   0.730  0.000  1.360          
--------------------------------------------------------------------------------


  Lattice summation method               =    Ewald          (3-D)
                                         =    Parry          (2-D)
                                         =    Saunders et al (1-D)
  Accuracy factor for lattice sums       =   12.000


  Time limit = Infinity

  Maximum range for interatomic potentials =    100000.000000 Angstroms

  General interatomic potentials :

--------------------------------------------------------------------------------
Atom  Types   Potential         A         B         C         D     Cutoffs(Ang)
  1     2                                                            Min    Max 
--------------------------------------------------------------------------------
O    c Ti   c Morse          1.03      3.64      1.88      0.00     0.000 65.000
Ti   c Ti   c Morse         0.567E-02  1.55      4.19      0.00     0.000 65.000
O    c O    c Morse         0.421E-01  1.19      3.70      0.00     0.000 65.000
--------------------------------------------------------------------------------

********************************************************************************
*  Output for configuration   1                                                *
********************************************************************************



  Final charges from QEq :

  No hydrogens present - no iteration needed

--------------------------------------------------------------------------------
    Atom no.            Atomic No.             Charge
--------------------------------------------------------------------------------
         1                  22                 1.1198938
         2                   8                -0.5599469
--------------------------------------------------------------------------------
  Electronegativity =        -2.406765 eV
  Self energy       =         5.052527 eV
--------------------------------------------------------------------------------

  Components of energy : 

--------------------------------------------------------------------------------
  Interatomic potentials     =         -10.29442491 eV
  Monopole - monopole (real) =          -7.00596951 eV
  Monopole - monopole (recip)=         -15.02524434 eV
  Monopole - monopole (total)=         -22.03121385 eV
  Self energy (EEM/QEq/SM)   =           5.05252653 eV
  QEq Coulomb correction     =          11.07571267 eV
--------------------------------------------------------------------------------
  Total lattice energy : 
    Primitive unit cell      =         -16.19739956 eV
    Non-primitive unit cell  =         -32.39479911 eV
--------------------------------------------------------------------------------
  Total lattice energy (in kJmol-1): 
    Primitive unit cell      =           -1562.8015 kJ/(mole unit cells)
    Non-primitive unit cell  =           -3125.6029 kJ/(mole unit cells)
--------------------------------------------------------------------------------


  Final charges from QEq :

  No hydrogens present - no iteration needed

--------------------------------------------------------------------------------
    Atom no.            Atomic No.             Charge
--------------------------------------------------------------------------------
         1                  22                 1.1198938
         2                   8                -0.5599469
--------------------------------------------------------------------------------
  Electronegativity =        -2.406765 eV
  Self energy       =         5.052527 eV
--------------------------------------------------------------------------------

  Peak dynamic memory used =       5.47 MB 


  Timing analysis for GULP :

--------------------------------------------------------------------------------
  Task / Subroutine                                          Time (Seconds)
--------------------------------------------------------------------------------
  Calculation of real space energy using symmetry                 0.3299
  Electronegativity equalisation                                  0.0700
  Symmetry generation of equivalent positions                     0.0010
--------------------------------------------------------------------------------
  Total CPU time                                                  0.4039
--------------------------------------------------------------------------------


  Job Finished at 12:20.20 18th December   2012                               

