 vasp.5.2.2 15Apr09 complex 
 executed on           LinuxPGF90 date 2010.02.22  22:01:46
 running on   16 nodes
 distr:  one band on    2 nodes,    8 groups


--------------------------------------------------------------------------------------------------------


 INCAR:
 POTCAR:   PAW_PBE Zn 06Sep2000                   
 POTCAR:   PAW_PBE Rh 06Sep2000                   
 POTCAR:   PAW_PBE O_s 07Sep2000                  
 POTCAR:   PAW_PBE Zn 06Sep2000                   
   VRHFIN =Zn: d10 p2                                                           
   LEXCH  = PE                                                                  
   EATOM  =  1749.0928 eV,  128.5547 Ry                                         
                                                                                
   TITEL  = PAW_PBE Zn 06Sep2000                                                
   LULTRA =        F    use ultrasoft PP ?                                      
   IUNSCR =        1    unscreen: 0-lin 1-nonlin 2-no                           
   RPACOR =    2.000    partial core radius                                     
   POMASS =   65.390; ZVAL   =   12.000    mass and valenz                      
   RCORE  =    2.300    outmost cutoff radius                                   
   RWIGS  =    2.400; RWIGS  =    1.270    wigner-seitz radius (au A)           
   ENMAX  =  276.727; ENMIN  =  207.545 eV                                      
   RCLOC  =    1.828    cutoff for local pot                                    
   LCOR   =        T    correct aug charges                                     
   LPAW   =        T    paw PP                                                  
   EAUG   =  575.892                                                            
   DEXC   =    -.003                                                            
   RMAX   =    2.772    core radius for proj-oper                               
   RAUG   =    1.300    factor for augmentation sphere                          
   RDEP   =    2.324    radius for radial grids                                 
   QCUT   =   -4.510; QGAM   =    9.020    optimization parameters              
                                                                                
   Description                                                                  
     l     E      TYP  RCUT    TYP  RCUT                                        
     2   .000     23  2.300                                                     
     2   .000     23  2.300                                                     
     0   .000     23  2.300                                                     
     0   .000     23  2.300                                                     
     1  -.200     23  2.300                                                     
     1   .000     23  2.300                                                     
     3   .000      7   .000                                                     
  local pseudopotential read in
  partial core-charges read in
  atomic valenz-charges read in
  non local Contribution for L=           2  read in
    real space projection operators read in
  non local Contribution for L=           2  read in
    real space projection operators read in
  non local Contribution for L=           0  read in
    real space projection operators read in
  non local Contribution for L=           0  read in
    real space projection operators read in
  non local Contribution for L=           1  read in
    real space projection operators read in
  non local Contribution for L=           1  read in
    real space projection operators read in
    PAW grid and wavefunctions read in
 
   number of l-projection  operators is LMAX  =           6
   number of lm-projection operators is LMMAX =          18
 
 POTCAR:   PAW_PBE Rh 06Sep2000                   
   VRHFIN =Rh: s1 d8                                                            
   LEXCH  = PE                                                                  
   EATOM  =   616.5493 eV,   45.3151 Ry                                         
                                                                                
   TITEL  = PAW_PBE Rh 06Sep2000                                                
   LULTRA =        F    use ultrasoft PP ?                                      
   IUNSCR =        1    unscreen: 0-lin 1-nonlin 2-no                           
   RPACOR =    2.170    partial core radius                                     
   POMASS =  102.906; ZVAL   =    9.000    mass and valenz                      
   RCORE  =    2.500    outmost cutoff radius                                   
   RWIGS  =    2.650; RWIGS  =    1.402    wigner-seitz radius (au A)           
   ENMAX  =  229.000; ENMIN  =  171.750 eV                                      
   RCLOC  =    1.827    cutoff for local pot                                    
   LCOR   =        T    correct aug charges                                     
   LPAW   =        T    paw PP                                                  
   EAUG   =  374.513                                                            
   DEXC   =    -.066                                                            
   RMAX   =    3.047    core radius for proj-oper                               
   RAUG   =    1.300    factor for augmentation sphere                          
   RDEP   =    2.536    radius for radial grids                                 
   QCUT   =   -4.103; QGAM   =    8.205    optimization parameters              
                                                                                
   Description                                                                  
     l     E      TYP  RCUT    TYP  RCUT                                        
     2   .000     23  2.500                                                     
     2   .000     23  2.500                                                     
     0   .000     23  2.400                                                     
     0   .000     23  2.400                                                     
     1  -.200     23  2.500                                                     
     1   .000     23  2.500                                                     
     3   .000      7   .000                                                     
  local pseudopotential read in
  partial core-charges read in
  atomic valenz-charges read in
  non local Contribution for L=           2  read in
    real space projection operators read in
  non local Contribution for L=           2  read in
    real space projection operators read in
  non local Contribution for L=           0  read in
    real space projection operators read in
  non local Contribution for L=           0  read in
    real space projection operators read in
  non local Contribution for L=           1  read in
    real space projection operators read in
  non local Contribution for L=           1  read in
    real space projection operators read in
    PAW grid and wavefunctions read in
 
   number of l-projection  operators is LMAX  =           6
   number of lm-projection operators is LMMAX =          18
 
 POTCAR:   PAW_PBE O_s 07Sep2000                  
   VRHFIN =O: s2p4                                                              
   LEXCH  = PE                                                                  
   EATOM  =   432.2909 eV,   31.7725 Ry                                         
                                                                                
   TITEL  = PAW_PBE O_s 07Sep2000                                               
   LULTRA =        F    use ultrasoft PP ?                                      
   IUNSCR =        0    unscreen: 0-lin 1-nonlin 2-no                           
   RPACOR =     .000    partial core radius                                     
   POMASS =   16.000; ZVAL   =    6.000    mass and valenz                      
   RCORE  =    1.850    outmost cutoff radius                                   
   RWIGS  =    1.700; RWIGS  =     .900    wigner-seitz radius (au A)           
   ENMAX  =  282.841; ENMIN  =  212.131 eV                                      
   RCLOC  =     .804    cutoff for local pot                                    
   LCOR   =        T    correct aug charges                                     
   LPAW   =        T    paw PP                                                  
   EAUG   =  412.352                                                            
   DEXC   =     .000                                                            
   RMAX   =    2.742    core radius for proj-oper                               
   RAUG   =    1.300    factor for augmentation sphere                          
   RDEP   =    1.878    radius for radial grids                                 
   QCUT   =   -4.559; QGAM   =    9.119    optimization parameters              
                                                                                
   Description                                                                  
     l     E      TYP  RCUT    TYP  RCUT                                        
     0   .000     23  1.500                                                     
     0   .000     23  1.500                                                     
     1   .000     23  1.850                                                     
     1   .000     23  1.850                                                     
     2   .000      7   .000                                                     
  local pseudopotential read in
  atomic valenz-charges read in
  non local Contribution for L=           0  read in
    real space projection operators read in
  non local Contribution for L=           0  read in
    real space projection operators read in
  non local Contribution for L=           1  read in
    real space projection operators read in
  non local Contribution for L=           1  read in
    real space projection operators read in
    PAW grid and wavefunctions read in
 
   number of l-projection  operators is LMAX  =           4
   number of lm-projection operators is LMMAX =           8
 
 Optimization of the real space projectors (new method)

 maximal supplied QI-value         = 16.25
 optimisation between [QCUT,QGAM] = [  8.78, 17.71] = [ 21.57, 87.87] Ry 
 Optimized for a Real-space Cutoff    1.74 Angstroem

   l    n(q)    QCUT    max X(q) W(low)/X(q) W(high)/X(q)  e(spline) 
   2      8     8.776     5.523    0.81E-05    0.23E-04    0.55E-07
   2      8     8.776     9.671    0.51E-04    0.14E-03    0.40E-06
   0      9     8.776    11.246    0.21E-04    0.74E-06    0.61E-08
   0      9     8.776    34.692    0.87E-04    0.57E-04    0.11E-06
   1      9     8.776     4.877    0.67E-05    0.26E-04    0.26E-07
   1      9     8.776     6.599    0.19E-04    0.96E-04    0.11E-06
 Optimization of the real space projectors (new method)

 maximal supplied QI-value         = 15.12
 optimisation between [QCUT,QGAM] = [  8.77, 17.69] = [ 21.53, 87.61] Ry 
 Optimized for a Real-space Cutoff    2.02 Angstroem

   l    n(q)    QCUT    max X(q) W(low)/X(q) W(high)/X(q)  e(spline) 
   2     10     8.768     3.971    0.66E-05    0.95E-05    0.83E-07
   2     10     8.768    27.544    0.58E-04    0.75E-04    0.79E-06
   0     11     8.768    20.781    0.22E-04    0.23E-05    0.17E-07
   0     11     8.768    69.103    0.33E-04    0.22E-04    0.13E-06
   1     10     8.768     7.864    0.32E-05    0.55E-06    0.35E-07
   1     10     8.768    10.811    0.20E-04    0.59E-05    0.13E-06
 Optimization of the real space projectors (new method)

 maximal supplied QI-value         = 20.41
 optimisation between [QCUT,QGAM] = [  8.78, 17.55] = [ 21.57, 86.27] Ry 
 Optimized for a Real-space Cutoff    1.69 Angstroem

   l    n(q)    QCUT    max X(q) W(low)/X(q) W(high)/X(q)  e(spline) 
   0      9     8.776     3.225    0.85E-05    0.67E-05    0.13E-06
   0      9     8.776    31.433    0.68E-04    0.75E-04    0.26E-06
   1      8     8.776     3.918    0.17E-04    0.16E-04    0.28E-06
   1      8     8.776    28.387    0.97E-04    0.12E-03    0.42E-06
 PAW_PBE Zn 06Sep2000                   :
 energy of atom  1       EATOM=-1749.0928
 kinetic energy error for atom=    0.0293 (will be added to EATOM!!)
 PAW_PBE Rh 06Sep2000                   :
 energy of atom  2       EATOM= -616.5493
 kinetic energy error for atom=    0.0317 (will be added to EATOM!!)
 PAW_PBE O_s 07Sep2000                  :
 energy of atom  3       EATOM= -432.2909
 kinetic energy error for atom=    0.0425 (will be added to EATOM!!)
 
 
 POSCAR: POSCAR created by SUPERPOSCAR           
  positions in direct lattice
  No initial velocities read in
 exchange correlation table for  LEXCH =        8
   RHO(1)=    0.500       N(1)  =     2000
   RHO(2)=  100.500       N(2)  =     4000
 


--------------------------------------------------------------------------------------------------------


 ion  position               nearest neighbor table
   1  0.875  0.875  0.875-  25 1.98  26 1.98  28 1.98  37 1.98
   2  0.125  0.125  0.125-  27 1.98  29 1.98  30 1.98  38 1.98
   3  0.375  0.375  0.875-  53 1.98  45 1.98  41 1.98  31 1.98
   4  0.375  0.875  0.375-  52 1.98  46 1.98  39 1.98  32 1.98
   5  0.125  0.625  0.625-  33 1.98  48 1.98  50 1.98  54 1.98
   6  0.875  0.375  0.375-  51 1.98  42 1.98  40 1.98  34 1.98
   7  0.625  0.125  0.625-  35 1.98  44 1.98  49 1.98  55 1.98
   8  0.625  0.625  0.125-  36 1.98  43 1.98  47 1.98  56 1.98
   9  0.250  0.000  0.750-  44 2.07  27 2.07  31 2.07  25 2.07  33 2.07  39 2.07  10 3.03  11 3.03
                            15 3.03  17 3.03  19 3.03  21 3.03
  10  0.250  0.750  0.000-  43 2.07  27 2.07  32 2.07  26 2.07  33 2.07  41 2.07   9 3.03  13 3.03
                            16 3.03  17 3.03  21 3.03  22 3.03
  11  0.000  0.250  0.750-  48 2.07  29 2.07  31 2.07  25 2.07  35 2.07  40 2.07   9 3.03  12 3.03
                            15 3.03  16 3.03  19 3.03  20 3.03
  12  0.750  0.250  0.000-  47 2.07  29 2.07  34 2.07  28 2.07  35 2.07  45 2.07  11 3.03  14 3.03
                            16 3.03  17 3.03  20 3.03  23 3.03
  13  0.000  0.750  0.250-  50 2.07  30 2.07  32 2.07  26 2.07  36 2.07  42 2.07  10 3.03  14 3.03
                            15 3.03  16 3.03  18 3.03  22 3.03
  14  0.750  0.000  0.250-  49 2.07  30 2.07  34 2.07  28 2.07  36 2.07  46 2.07  12 3.03  13 3.03
                            15 3.03  17 3.03  18 3.03  23 3.03
  15  0.000  0.000  0.500-  39 2.07  40 2.07  25 2.07  30 2.07  49 2.07  50 2.07   9 3.03  11 3.03
                            13 3.03  14 3.03  18 3.03  19 3.03
  16  0.000  0.500  0.000-  41 2.07  42 2.07  26 2.07  29 2.07  47 2.07  48 2.07  10 3.03  11 3.03
                            12 3.03  13 3.03  20 3.03  22 3.03
  17  0.500  0.000  0.000-  45 2.07  46 2.07  27 2.07  28 2.07  43 2.07  44 2.07   9 3.03  10 3.03
                            12 3.03  14 3.03  21 3.03  23 3.03
  18  0.750  0.750  0.500-  36 2.07  49 2.07  50 2.07  37 2.07  51 2.07  52 2.07  13 3.03  14 3.03
                            15 3.03  20 3.03  21 3.03  24 3.03
  19  0.250  0.250  0.500-  39 2.07  40 2.07  31 2.07  38 2.07  54 2.07  55 2.07   9 3.03  11 3.03
                            15 3.03  22 3.03  23 3.03  24 3.03
  20  0.750  0.500  0.750-  35 2.07  47 2.07  48 2.07  37 2.07  51 2.07  53 2.07  11 3.03  12 3.03
                            16 3.03  18 3.03  21 3.03  24 3.03
  21  0.500  0.750  0.750-  33 2.07  43 2.07  44 2.07  37 2.07  52 2.07  53 2.07   9 3.03  10 3.03
                            17 3.03  18 3.03  20 3.03  24 3.03
  22  0.250  0.500  0.250-  41 2.07  42 2.07  32 2.07  38 2.07  54 2.07  56 2.07  10 3.03  13 3.03
                            16 3.03  19 3.03  23 3.03  24 3.03
  23  0.500  0.250  0.250-  45 2.07  46 2.07  34 2.07  38 2.07  55 2.07  56 2.07  12 3.03  14 3.03
                            17 3.03  19 3.03  22 3.03  24 3.03
  24  0.500  0.500  0.500-  51 2.07  52 2.07  53 2.07  54 2.07  55 2.07  56 2.07  18 3.03  19 3.03
                            20 3.03  21 3.03  22 3.03  23 3.03
  25  0.009  0.009  0.741-   1 1.98   9 2.07  11 2.07  15 2.07
  26  0.009  0.741  0.009-   1 1.98  10 2.07  13 2.07  16 2.07
  27  0.259  0.991  0.991-   2 1.98   9 2.07  10 2.07  17 2.07
  28  0.741  0.009  0.009-   1 1.98  12 2.07  14 2.07  17 2.07
  29  0.991  0.259  0.991-   2 1.98  11 2.07  12 2.07  16 2.07
  30  0.991  0.991  0.259-   2 1.98  13 2.07  14 2.07  15 2.07
  31  0.241  0.241  0.741-   3 1.98   9 2.07  11 2.07  19 2.07
  32  0.241  0.741  0.241-   4 1.98  10 2.07  13 2.07  22 2.07
  33  0.259  0.759  0.759-   5 1.98  21 2.07  10 2.07   9 2.07
  34  0.741  0.241  0.241-   6 1.98  12 2.07  14 2.07  23 2.07
  35  0.759  0.259  0.759-   7 1.98  20 2.07  12 2.07  11 2.07
  36  0.759  0.759  0.259-   8 1.98  18 2.07  14 2.07  13 2.07
  37  0.741  0.741  0.741-   1 1.98  18 2.07  20 2.07  21 2.07
  38  0.259  0.259  0.259-   2 1.98  19 2.07  22 2.07  23 2.07
  39  0.241  0.009  0.509-   4 1.98  15 2.07  19 2.07   9 2.07
  40  0.009  0.241  0.509-   6 1.98  15 2.07  19 2.07  11 2.07
  41  0.241  0.509  0.009-   3 1.98  16 2.07  22 2.07  10 2.07
  42  0.009  0.509  0.241-   6 1.98  16 2.07  22 2.07  13 2.07
  43  0.491  0.759  0.991-   8 1.98  10 2.07  21 2.07  17 2.07
  44  0.491  0.991  0.759-   7 1.98   9 2.07  21 2.07  17 2.07
  45  0.509  0.241  0.009-   3 1.98  17 2.07  23 2.07  12 2.07
  46  0.509  0.009  0.241-   4 1.98  17 2.07  23 2.07  14 2.07
  47  0.759  0.491  0.991-   8 1.98  12 2.07  20 2.07  16 2.07
  48  0.991  0.491  0.759-   5 1.98  11 2.07  20 2.07  16 2.07
  49  0.759  0.991  0.491-   7 1.98  14 2.07  18 2.07  15 2.07
  50  0.991  0.759  0.491-   5 1.98  13 2.07  18 2.07  15 2.07
  51  0.741  0.509  0.509-   6 1.98  24 2.07  20 2.07  18 2.07
  52  0.509  0.741  0.509-   4 1.98  24 2.07  21 2.07  18 2.07
  53  0.509  0.509  0.741-   3 1.98  24 2.07  21 2.07  20 2.07
  54  0.259  0.491  0.491-   5 1.98  19 2.07  22 2.07  24 2.07
  55  0.491  0.259  0.491-   7 1.98  19 2.07  23 2.07  24 2.07
  56  0.491  0.491  0.259-   8 1.98  22 2.07  23 2.07  24 2.07
 

IMPORTANT INFORMATION: All symmetrisations will be switched off!
NOSYMM: (Re-)initialisation of all symmetry stuff for point group C_1.

 
 
 KPOINTS: k-point                                 

Automatic generation of k-mesh.
 
 Subroutine IBZKPT returns following result:
 ===========================================
 
 Found      4 irreducible k-points:
 
 Following reciprocal coordinates:
            Coordinates               Weight
  0.250000  0.250000  0.250000      2.000000
 -0.250000  0.250000  0.250000      2.000000
  0.250000 -0.250000  0.250000      2.000000
 -0.250000 -0.250000  0.250000      2.000000
 
 Following cartesian coordinates:
            Coordinates               Weight
  0.247627  0.247627  0.247627      2.000000
 -0.247627  0.247627  0.247627      2.000000
  0.247627 -0.247627  0.247627      2.000000
 -0.247627 -0.247627  0.247627      2.000000
 


--------------------------------------------------------------------------------------------------------




 Dimension of arrays:
   k-points           NKPTS =      4   k-points in BZ     NKDIM =      4   number of bands    NBANDS=    264
   number of dos      NEDOS =    301   number of ions     NIONS =     56
   non local maximal  LDIM  =      6   non local SUM 2l+1 LMDIM =     18
   total plane-waves  NPLWV = 110592
   max r-space proj   IRMAX =   6107   max aug-charges    IRDMAX=  80042
   dimension x,y,z NGX =    48 NGY =   48 NGZ =   48
   dimension x,y,z NGXF=    96 NGYF=   96 NGZF=   96
   support grid    NGXF=   192 NGYF=  192 NGZF=  192
   ions per type =               8  16  32
 NGX,Y,Z   is equivalent  to a cutoff of   9.31,  9.31,  9.31 a.u.
 NGXF,Y,Z  is equivalent  to a cutoff of  18.62, 18.62, 18.62 a.u.


 I would recommend the setting:
   dimension x,y,z NGX =    48 NGY =   48 NGZ =   48
 SYSTEM =  unknown system                          
 POSCAR =  POSCAR created by SUPERPOSCAR           

 Startparameter for this run:
   NWRITE =      2    write-flag & timer
   PREC   = accura    medium, high low
   ISTART =      0    job   : 0-new  1-cont  2-samecut
   ICHARG =      2    charge: 1-file 2-atom 10-const
   ISPIN  =      2    spin polarized calculation?
   LNONCOLLINEAR =      F non collinear calculations
   LSORBIT =      F    spin-orbit coupling
   INIWAV =      1    electr: 0-lowe 1-rand  2-diag
   LASPH  =      F    aspherical Exc in radial PAW
   METAGGA=      F    non-selfconsistent MetaGGA calc.

 Electronic Relaxation 1
   ENCUT  =  300.0 eV  22.05 Ry    4.70 a.u.  12.11 12.11 12.11*2*pi/ulx,y,z
   ENINI  =  300.0     initial cutoff
   ENAUG  =  575.9 eV  augmentation charge cutoff
   NELM   =     60;   NELMIN=  2; NELMDL=  0     # of ELM steps 
   EDIFF  = 0.1E-04   stopping-criterion for ELM
   LREAL  =      T    real-space projection
   LCOMPAT=      F    compatible to vasp.4.4
   LREAL_COMPAT= F    compatible to vasp.4.5.1-3
   GGA_COMPAT  = T    GGA compatible to vasp.4.4-vasp.4.6
   LMAXPAW     = -100 max onsite density
   LMAXMIX     =    4 max onsite mixed and CHGCAR
   VOSKOWN=      0    Vosko Wilk Nusair interpolation
   ROPT   =   -0.00010  -0.00010  -0.00010
 Ionic relaxation
   EDIFFG = 0.1E-03   stopping-criterion for IOM
   NSW    =      0    number of steps for IOM
   NBLOCK =      1;   KBLOCK =      1    inner block; outer block 
   IBRION =     -1    ionic relax: 0-MD 1-quasi-New 2-CG
   NFREE  =      0    steps in history (QN), initial steepest desc. (CG)
   ISIF   =      2    stress and relaxation
   IWAVPR =     10    prediction:  0-non 1-charg 2-wave 3-comb
   ISYM   =      0    0-nonsym 1-usesym 2-fastsym
   LCORR  =      T    Harris-Foulkes like correction to forces

   POTIM  = 0.5000    time-step for ionic-motion
   TEIN   =    0.0    initial temperature
   TEBEG  =    0.0;   TEEND  =   0.0 temperature during run
   SMASS  =  -3.00    Nose mass-parameter (am)
   estimated Nose-frequenzy (Omega)   =  0.10E-29 period in steps =****** mass=  -0.168E-26a.u.
   NPACO  =    256;   APACO  = 16.0  distance and # of slots for P.C.
   PSTRESS=    0.0 pullay stress

  Mass of Ions in am
   POMASS =  65.39102.91 16.00
  Ionic Valenz
   ZVAL   =  12.00  9.00  6.00
  Atomic Wigner-Seitz radii
   RWIGS  =   2.40  2.46  1.55
   NELECT =     432.0000    total number of electrons
   NUPDOWN=       0.0000    fix difference up-down

 DOS related values:
   EMIN   =  10.00;   EMAX   =-10.00  energy-range for DOS
   EFERMI =   0.00
   ISMEAR =     0;   SIGMA  =   0.05  broadening in eV -4-tet -1-fermi 0-gaus

 Electronic relaxation 2 (details)
   IALGO  =     68    algorithm
   LDIAG  =      T    sub-space diagonalisation
   IMIX   =      4    mixing-type and parameters
     AMIX     =   0.40;   BMIX     =  1.00
     AMIX_MAG =   1.60;   BMIX_MAG =  1.00
     AMIN     =   0.10
     WC   =   100.;   INIMIX=   1;  MIXPRE=   1

 Intra band minimization:
   WEIMIN = 0.0000     energy-eigenvalue tresh-hold
   EBREAK =  0.97E-08  absolut break condition
   DEPER  =   0.30     relativ break condition  

   TIME   =   0.40     timestep for ELM

  volume/ion in A,a.u.               =      11.25        75.89
  Fermi-wavevector in a.u.,A,eV,Ry     =   1.443842  2.728466 28.363787  2.084680
  Thomas-Fermi vector in A             =   2.562204
 
 Write flags
   LWAVE  =      T    write WAVECAR
   LCHARG =      T    write CHGCAR
   LVTOT  =      F    write LOCPOT, local potential
   LELF   =      F    write electronic localiz. function (ELF)
   LORBIT =      0    0 simple, 1 ext, 2 COOP (PROOUT)


 Dipole corrections
   LMONO  =      F    monopole corrections only (constant potential shift)
   LDIPOL =      F    correct potential (dipole corrections)
   IDIPOL =      0    1-x, 2-y, 3-z, 4-all directions 
   EPSILON=  1.0000000 bulk dielectric constant

 LDA+U is selected, type is set to LDAUTYPE =  1
   angular momentum for each species, LDAU#  1 :   L =      -1      2      1
   U (eV)           for each species, LDAU#  1 :   U =    0.00   4.17   1.25
   J (eV)           for each species, LDAU#  1 :   J =    0.00   0.00   0.00
   nlep             for each species, LDAU#  1 :   O =       1      2      2
   angular momentum for each species, LDAU#  2 :   L =      -1      2      1
   U (eV)           for each species, LDAU#  2 :   U =    0.00   1.67   6.49
   J (eV)           for each species, LDAU#  2 :   J =    0.00   0.00   0.00
   nlep             for each species, LDAU#  2 :   O =       1      1      1
   angular momentum for each species, LDAU#  3 :   L =       2      2     -1
   U (eV)           for each species, LDAU#  3 :   U =    6.00   3.00   0.00
   J (eV)           for each species, LDAU#  3 :   J =    0.00   1.00   0.00
   nlep             for each species, LDAU#  3 :   O =       1      1      1
   angular momentum for each species, LDAU#  4 :   L =      -1     -1     -1
   U (eV)           for each species, LDAU#  4 :   U =    0.00   0.00   0.00
   J (eV)           for each species, LDAU#  4 :   J =    0.00   0.00   0.00
   nlep             for each species, LDAU#  4 :   O =       1      1      1
 Exchange correlation treatment:
   GGA     =    --    GGA type
   LEXCH   =     8    internal setting for exchange type
   VOSKOWN=      0    Vosko Wilk Nusair interpolation
   LHFCALC =     F    Hartree Fock is set to
   LHFONE  =     F    Hartree Fock one center treatment
   AEXX    =    0.0000 exact exchange contribution

 Linear response parameters
   LEPSILON=     F    determine dielectric tensor
   LRPA    =     F    only Hartree local field effects (RPA)
   LNABLA  =     F    use nabla operator in PAW spheres
   LVEL    =     F    velocity operator in full k-point grid
   LINTERFAST=   F  fast interpolation
   KINTER  =     0    interpolate to denser k-point grid
   CSHIFT  =0.1000    complex shift for real part using Kramers Kronig
   OMEGAMAX=  -1.0    maximum frequency

 Orbital magnetization related:
   ORBITALMAG=     F  switch on orbital magnetization
   LCHIMAG   =     F  perturbation theory with respect to B field



--------------------------------------------------------------------------------------------------------


 Static calculation
 charge density and potential will be updated during run
 spin polarized calculation
 RMM-DIIS sequential band-by-band and
  variant of blocked Davidson during initial phase
 perform sub-space diagonalisation
    before iterative eigenvector-optimisation
 modified Broyden-mixing scheme, WC =      100.0
 initial mixing is a Kerker type mixing with AMIX =  0.4000 and BMIX =      1.0000
 Hartree-type preconditioning will be used
 using additional bands           48
 real space projection scheme for non local part
 use partial core corrections
 calculate Harris-corrections to forces 
   (improved forces if not selfconsistent)
 use gradient corrections 
 use of overlap-Matrix (Vanderbilt PP)
 Gauss-broadening in eV      SIGMA  =   0.05


--------------------------------------------------------------------------------------------------------


  energy-cutoff  :      300.00
  volume of cell :      629.72
      direct lattice vectors                 reciprocal lattice vectors
     8.571360519  0.000000000  0.000000000     0.116667593  0.000000000  0.000000000
     0.000000000  8.571360519  0.000000000     0.000000000  0.116667593  0.000000000
     0.000000000  0.000000000  8.571360519     0.000000000  0.000000000  0.116667593

  length of vectors
     8.571360519  8.571360519  8.571360519     0.116667593  0.116667593  0.116667593


 
 k-points in units of 2pi/SCALE and weight: k-point                                 
   0.24762697  0.24762697  0.24762697       0.250
  -0.24762697  0.24762697  0.24762697       0.250
   0.24762697 -0.24762697  0.24762697       0.250
  -0.24762697 -0.24762697  0.24762697       0.250
 
 k-points in reciprocal lattice and weights: k-point                                 
   0.25000000  0.25000000  0.25000000       0.250
  -0.25000000  0.25000000  0.25000000       0.250
   0.25000000 -0.25000000  0.25000000       0.250
  -0.25000000 -0.25000000  0.25000000       0.250
 
 position of ions in fractional coordinates (direct lattice) 
   0.87500000  0.87500000  0.87500000
   0.12500000  0.12500000  0.12500000
   0.37500000  0.37500000  0.87500000
   0.37500000  0.87500000  0.37500000
   0.12500000  0.62500000  0.62500000
   0.87500000  0.37500000  0.37500000
   0.62500000  0.12500000  0.62500000
   0.62500000  0.62500000  0.12500000
   0.25000000  0.00000000  0.75000000
   0.25000000  0.75000000  0.00000000
   0.00000000  0.25000000  0.75000000
   0.75000000  0.25000000  0.00000000
   0.00000000  0.75000000  0.25000000
   0.75000000  0.00000000  0.25000000
   0.00000000  0.00000000  0.50000000
   0.00000000  0.50000000  0.00000000
   0.50000000  0.00000000  0.00000000
   0.75000000  0.75000000  0.50000000
   0.25000000  0.25000000  0.50000000
   0.75000000  0.50000000  0.75000000
   0.50000000  0.75000000  0.75000000
   0.25000000  0.50000000  0.25000000
   0.50000000  0.25000000  0.25000000
   0.50000000  0.50000000  0.50000000
   0.00860710  0.00860710  0.74139290
   0.00860710  0.74139290  0.00860710
   0.25860710  0.99139290  0.99139290
   0.74139290  0.00860710  0.00860710
   0.99139290  0.25860710  0.99139290
   0.99139290  0.99139290  0.25860710
   0.24139290  0.24139290  0.74139290
   0.24139290  0.74139290  0.24139290
   0.25860710  0.75860700  0.75860700
   0.74139290  0.24139290  0.24139290
   0.75860700  0.25860710  0.75860700
   0.75860700  0.75860700  0.25860710
   0.74139290  0.74139290  0.74139290
   0.25860710  0.25860710  0.25860710
   0.24139290  0.00860710  0.50860700
   0.00860710  0.24139290  0.50860700
   0.24139290  0.50860700  0.00860710
   0.00860710  0.50860700  0.24139290
   0.49139290  0.75860700  0.99139290
   0.49139290  0.99139290  0.75860700
   0.50860700  0.24139290  0.00860710
   0.50860700  0.00860710  0.24139290
   0.75860700  0.49139290  0.99139290
   0.99139290  0.49139290  0.75860700
   0.75860700  0.99139290  0.49139290
   0.99139290  0.75860700  0.49139290
   0.74139290  0.50860700  0.50860700
   0.50860700  0.74139290  0.50860700
   0.50860700  0.50860700  0.74139290
   0.25860710  0.49139290  0.49139290
   0.49139290  0.25860710  0.49139290
   0.49139290  0.49139290  0.25860710
 
 position of ions in cartesian coordinates  (Angst):
   7.49994045  7.49994045  7.49994045
   1.07142006  1.07142006  1.07142006
   3.21426019  3.21426019  7.49994045
   3.21426019  7.49994045  3.21426019
   1.07142006  5.35710032  5.35710032
   7.49994045  3.21426019  3.21426019
   5.35710032  1.07142006  5.35710032
   5.35710032  5.35710032  1.07142006
   2.14284013  0.00000000  6.42852039
   2.14284013  6.42852039  0.00000000
   0.00000000  2.14284013  6.42852039
   6.42852039  2.14284013  0.00000000
   0.00000000  6.42852039  2.14284013
   6.42852039  0.00000000  2.14284013
   0.00000000  0.00000000  4.28568026
   0.00000000  4.28568026  0.00000000
   4.28568026  0.00000000  0.00000000
   6.42852039  6.42852039  4.28568026
   2.14284013  2.14284013  4.28568026
   6.42852039  4.28568026  6.42852039
   4.28568026  6.42852039  6.42852039
   2.14284013  4.28568026  2.14284013
   4.28568026  2.14284013  2.14284013
   4.28568026  4.28568026  4.28568026
   0.07377456  0.07377456  6.35474583
   0.07377456  6.35474583  0.07377456
   2.21661469  8.49758596  8.49758596
   6.35474583  0.07377456  0.07377456
   8.49758596  2.21661469  8.49758596
   8.49758596  8.49758596  2.21661469
   2.06906557  2.06906557  6.35474583
   2.06906557  6.35474583  2.06906557
   2.21661469  6.50229409  6.50229409
   6.35474583  2.06906557  2.06906557
   6.50229409  2.21661469  6.50229409
   6.50229409  6.50229409  2.21661469
   6.35474583  6.35474583  6.35474583
   2.21661469  2.21661469  2.21661469
   2.06906557  0.07377456  4.35945396
   0.07377456  2.06906557  4.35945396
   2.06906557  4.35945396  0.07377456
   0.07377456  4.35945396  2.06906557
   4.21190570  6.50229409  8.49758596
   4.21190570  8.49758596  6.50229409
   4.35945396  2.06906557  0.07377456
   4.35945396  0.07377456  2.06906557
   6.50229409  4.21190570  8.49758596
   8.49758596  4.21190570  6.50229409
   6.50229409  8.49758596  4.21190570
   8.49758596  6.50229409  4.21190570
   6.35474583  4.35945396  4.35945396
   4.35945396  6.35474583  4.35945396
   4.35945396  4.35945396  6.35474583
   2.21661469  4.21190570  4.21190570
   4.21190570  2.21661469  4.21190570
   4.21190570  4.21190570  2.21661469
 


--------------------------------------------------------------------------------------------------------


 k-point  1 :  0.25000.25000.2500  plane waves:    7451
 k-point  2 :  -.25000.25000.2500  plane waves:    7451
 k-point  3 :  0.2500-.25000.2500  plane waves:    7451
 k-point  4 :  -.2500-.25000.2500  plane waves:    7451

 maximum and minimum number of plane-waves per node :    3739   3712

 maximum number of plane-waves:    7451
 maximal index in each direction: 
   IXMAX= 12   IYMAX= 12   IZMAX= 11
   IXMIN=-12   IYMIN=-12   IZMIN=-12

 WARNING: aliasing errors must be expected set NGX to  50 to avoid them
 WARNING: aliasing errors must be expected set NGY to  50 to avoid them
 NGZ is ok and might be reduce to  48
 aliasing errors are usually negligible using standard VASP settings
 and one can safely disregard these warnings

 real space projection operators:
  total allocation   :  24408.62 KBytes
  max/ min on nodes  :  12244.38  12164.25


 parallel 3D FFT for wavefunctions:
    minimum data exchange during FFTs selected (reduces bandwidth)
 parallel 3D FFT for charge:
    minimum data exchange during FFTs selected (reduces bandwidth)


 total amount of memory used by VASP on root node 202906. kBytes
========================================================================

   base      :    60000. kBytes
   nonlr-proj:    41692. kBytes
   fftplans  :    19580. kBytes
   grid      :    45360. kBytes
   one-center:     1740. kBytes
   wavefun   :    34534. kBytes
 
 Broyden mixing: mesh for mixing (old mesh)
   NGX = 25   NGY = 25   NGZ = 25
  (NGX  = 96   NGY  = 96   NGZ  = 96)
  gives a total of  15625 points

 initial charge density was supplied:
 charge density of overlapping atoms calculated
 number of electron  432.0000000 magnetization    0.0000000
 keeping initial charge density in first step


--------------------------------------------------------------------------------------------------------


 Maximum index for non-local projection operator         2971
 Maximum index for augmentation-charges         4987 (set IRDMAX)


--------------------------------------------------------------------------------------------------------


    FEWALD:  cpu time    0.02: real time    0.02
   RESPFUN:  cpu time    0.00: real time    0.00


----------------------------------------- Iteration    1(   1)  ---------------------------------------


    POTLOK:  cpu time    0.24: real time    0.40
 
atom =   9  type =  2  l = 2  LDA+U# 1
 
 onsite density matrix
 
spin component  1
 
  0.7108  0.0000  0.0000  0.0000  0.0000
  0.0000  0.7108  0.0000  0.0000  0.0000
  0.0000  0.0000  0.7108  0.0000  0.0000
  0.0000  0.0000  0.0000  0.7108  0.0000
  0.0000  0.0000  0.0000  0.0000  0.7108
 
spin component  2
 
  0.7108  0.0000  0.0000  0.0000  0.0000
  0.0000  0.7108  0.0000  0.0000  0.0000
  0.0000  0.0000  0.7108  0.0000  0.0000
  0.0000  0.0000  0.0000  0.7108  0.0000
  0.0000  0.0000  0.0000  0.0000  0.7108
 
 occupancies and eigenvectors
 
  o =  0.7108  v =  1.0000  0.0000  0.0000  0.0000  0.0000  0.0000  0.0000  0.0000  0.0000  0.0000      0.0000  0.0000  0.0000  0.0000  0.0000  0.0000  0.0000  0.0000  0.0000  0.0000
  o =  0.7108  v =  0.0000  1.0000  0.0000  0.0000  0.0000  0.0000  0.0000  0.0000  0.0000  0.0000      0.0000  0.0000  0.0000  0.0000  0.0000  0.0000  0.0000  0.0000  0.0000  0.0000
  o =  0.7108  v =  0.0000  0.0000  0.0000  1.0000  0.0000  0.0000  0.0000  0.0000  0.0000  0.0000      0.0000  0.0000  0.0000  0.0000  0.0000  0.0000  0.0000  0.0000  0.0000  0.0000
  o =  0.7108  v =  0.0000  0.0000  0.0000  0.0000  1.0000  0.0000  0.0000  0.0000  0.0000  0.0000      0.0000  0.0000  0.0000  0.0000  0.0000  0.0000  0.0000  0.0000  0.0000  0.0000
  o =  0.7108  v =  0.0000  0.0000  0.0000  0.0000  0.0000  1.0000  0.0000  0.0000  0.0000  0.0000      0.0000  0.0000  0.0000  0.0000  0.0000  0.0000  0.0000  0.0000  0.0000  0.0000
  o =  0.7108  v =  0.0000  0.0000  0.0000  0.0000  0.0000  0.0000  1.0000  0.0000  0.0000  0.0000      0.0000  0.0000  0.0000  0.0000  0.0000  0.0000  0.0000  0.0000  0.0000  0.0000
  o =  0.7108  v =  0.0000  0.0000  0.0000  0.0000  0.0000  0.0000  0.0000  0.0000  1.0000  0.0000      0.0000  0.0000  0.0000  0.0000  0.0000  0.0000  0.0000  0.0000  0.0000  0.0000
  o =  0.7108  v =  0.0000  0.0000  0.0000  0.0000  0.0000  0.0000  0.0000  0.0000  0.0000  1.0000      0.0000  0.0000  0.0000  0.0000  0.0000  0.0000  0.0000  0.0000  0.0000  0.0000
  o =  0.7108  v =  0.0000  0.0000  1.0000  0.0000  0.0000  0.0000  0.0000  0.0000  0.0000  0.0000      0.0000  0.0000  0.0000  0.0000  0.0000  0.0000  0.0000  0.0000  0.0000  0.0000
  o =  0.7108  v =  0.0000  0.0000  0.0000  0.0000  0.0000  0.0000  0.0000  1.0000  0.0000  0.0000      0.0000  0.0000  0.0000  0.0000  0.0000  0.0000  0.0000  0.0000  0.0000  0.0000
 
atom =  10  type =  2  l = 2  LDA+U# 1
 
 onsite density matrix
 
spin component  1
 
  0.7108  0.0000  0.0000  0.0000  0.0000
  0.0000  0.7108  0.0000  0.0000  0.0000
  0.0000  0.0000  0.7108  0.0000  0.0000
  0.0000  0.0000  0.0000  0.7108  0.0000
  0.0000  0.0000  0.0000  0.0000  0.7108
 
spin component  2
 
  0.7108  0.0000  0.0000  0.0000  0.0000
  0.0000  0.7108  0.0000  0.0000  0.0000
  0.0000  0.0000  0.7108  0.0000  0.0000
  0.0000  0.0000  0.0000  0.7108  0.0000
  0.0000  0.0000  0.0000  0.0000  0.7108
 
 occupancies and eigenvectors
 
  o =  0.7108  v =  1.0000  0.0000  0.0000  0.0000  0.0000  0.0000  0.0000  0.0000  0.0000  0.0000      0.0000  0.0000  0.0000  0.0000  0.0000  0.0000  0.0000  0.0000  0.0000  0.0000
  o =  0.7108  v =  0.0000  1.0000  0.0000  0.0000  0.0000  0.0000  0.0000  0.0000  0.0000  0.0000      0.0000  0.0000  0.0000  0.0000  0.0000  0.0000  0.0000  0.0000  0.0000  0.0000
  o =  0.7108  v =  0.0000  0.0000  0.0000  1.0000  0.0000  0.0000  0.0000  0.0000  0.0000  0.0000      0.0000  0.0000  0.0000  0.0000  0.0000  0.0000  0.0000  0.0000  0.0000  0.0000
  o =  0.7108  v =  0.0000  0.0000  0.0000  0.0000  1.0000  0.0000  0.0000  0.0000  0.0000  0.0000      0.0000  0.0000  0.0000  0.0000  0.0000  0.0000  0.0000  0.0000  0.0000  0.0000
  o =  0.7108  v =  0.0000  0.0000  0.0000  0.0000  0.0000  1.0000  0.0000  0.0000  0.0000  0.0000      0.0000  0.0000  0.0000  0.0000  0.0000  0.0000  0.0000  0.0000  0.0000  0.0000
  o =  0.7108  v =  0.0000  0.0000  0.0000  0.0000  0.0000  0.0000  1.0000  0.0000  0.0000  0.0000      0.0000  0.0000  0.0000  0.0000  0.0000  0.0000  0.0000  0.0000  0.0000  0.0000
  o =  0.7108  v =  0.0000  0.0000  0.0000  0.0000  0.0000  0.0000  0.0000  0.0000  1.0000  0.0000      0.0000  0.0000  0.0000  0.0000  0.0000  0.0000  0.0000  0.0000  0.0000  0.0000
  o =  0.7108  v =  0.0000  0.0000  0.0000  0.0000  0.0000  0.0000  0.0000  0.0000  0.0000  1.0000      0.0000  0.0000  0.0000  0.0000  0.0000  0.0000  0.0000  0.0000  0.0000  0.0000
  o =  0.7108  v =  0.0000  0.0000  1.0000  0.0000  0.0000  0.0000  0.0000  0.0000  0.0000  0.0000      0.0000  0.0000  0.0000  0.0000  0.0000  0.0000  0.0000  0.0000  0.0000  0.0000
  o =  0.7108  v =  0.0000  0.0000  0.0000  0.0000  0.0000  0.0000  0.0000  1.0000  0.0000  0.0000      0.0000  0.0000  0.0000  0.0000  0.0000  0.0000  0.0000  0.0000  0.0000  0.0000
 
atom =  11  type =  2  l = 2  LDA+U# 1
 
 onsite density matrix
 
spin component  1
 
  0.7108  0.0000  0.0000  0.0000  0.0000
  0.0000  0.7108  0.0000  0.0000  0.0000
  0.0000  0.0000  0.7108  0.0000  0.0000
  0.0000  0.0000  0.0000  0.7108  0.0000
  0.0000  0.0000  0.0000  0.0000  0.7108
 
spin component  2
 
  0.7108  0.0000  0.0000  0.0000  0.0000
  0.0000  0.7108  0.0000  0.0000  0.0000
  0.0000  0.0000  0.7108  0.0000  0.0000
  0.0000  0.0000  0.0000  0.7108  0.0000
  0.0000  0.0000  0.0000  0.0000  0.7108
 
 occupancies and eigenvectors
 
  o =  0.7108  v =  1.0000  0.0000  0.0000  0.0000  0.0000  0.0000  0.0000  0.0000  0.0000  0.0000      0.0000  0.0000  0.0000  0.0000  0.0000  0.0000  0.0000  0.0000  0.0000  0.0000
  o =  0.7108  v =  0.0000  1.0000  0.0000  0.0000  0.0000  0.0000  0.0000  0.0000  0.0000  0.0000      0.0000  0.0000  0.0000  0.0000  0.0000  0.0000  0.0000  0.0000  0.0000  0.0000
  o =  0.7108  v =  0.0000  0.0000  0.0000  1.0000  0.0000  0.0000  0.0000  0.0000  0.0000  0.0000      0.0000  0.0000  0.0000  0.0000  0.0000  0.0000  0.0000  0.0000  0.0000  0.0000
  o =  0.7108  v =  0.0000  0.0000  0.0000  0.0000  1.0000  0.0000  0.0000  0.0000  0.0000  0.0000      0.0000  0.0000  0.0000  0.0000  0.0000  0.0000  0.0000  0.0000  0.0000  0.0000
  o =  0.7108  v =  0.0000  0.0000  0.0000  0.0000  0.0000  1.0000  0.0000  0.0000  0.0000  0.0000      0.0000  0.0000  0.0000  0.0000  0.0000  0.0000  0.0000  0.0000  0.0000  0.0000
  o =  0.7108  v =  0.0000  0.0000  0.0000  0.0000  0.0000  0.0000  1.0000  0.0000  0.0000  0.0000      0.0000  0.0000  0.0000  0.0000  0.0000  0.0000  0.0000  0.0000  0.0000  0.0000
  o =  0.7108  v =  0.0000  0.0000  0.0000  0.0000  0.0000  0.0000  0.0000  0.0000  1.0000  0.0000      0.0000  0.0000  0.0000  0.0000  0.0000  0.0000  0.0000  0.0000  0.0000  0.0000
  o =  0.7108  v =  0.0000  0.0000  0.0000  0.0000  0.0000  0.0000  0.0000  0.0000  0.0000  1.0000      0.0000  0.0000  0.0000  0.0000  0.0000  0.0000  0.0000  0.0000  0.0000  0.0000
  o =  0.7108  v =  0.0000  0.0000  1.0000  0.0000  0.0000  0.0000  0.0000  0.0000  0.0000  0.0000      0.0000  0.0000  0.0000  0.0000  0.0000  0.0000  0.0000  0.0000  0.0000  0.0000
  o =  0.7108  v =  0.0000  0.0000  0.0000  0.0000  0.0000  0.0000  0.0000  1.0000  0.0000  0.0000      0.0000  0.0000  0.0000  0.0000  0.0000  0.0000  0.0000  0.0000  0.0000  0.0000
 
atom =  12  type =  2  l = 2  LDA+U# 1
 
 onsite density matrix
 
spin component  1
 
  0.7108  0.0000  0.0000  0.0000  0.0000
  0.0000  0.7108  0.0000  0.0000  0.0000
  0.0000  0.0000  0.7108  0.0000  0.0000
  0.0000  0.0000  0.0000  0.7108  0.0000
  0.0000  0.0000  0.0000  0.0000  0.7108
 
spin component  2
 
  0.7108  0.0000  0.0000  0.0000  0.0000
  0.0000  0.7108  0.0000  0.0000  0.0000
  0.0000  0.0000  0.7108  0.0000  0.0000
  0.0000  0.0000  0.0000  0.7108  0.0000
  0.0000  0.0000  0.0000  0.0000  0.7108
 
 occupancies and eigenvectors
 
  o =  0.7108  v =  1.0000  0.0000  0.0000  0.0000  0.0000  0.0000  0.0000  0.0000  0.0000  0.0000      0.0000  0.0000  0.0000  0.0000  0.0000  0.0000  0.0000  0.0000  0.0000  0.0000
  o =  0.7108  v =  0.0000  1.0000  0.0000  0.0000  0.0000  0.0000  0.0000  0.0000  0.0000  0.0000      0.0000  0.0000  0.0000  0.0000  0.0000  0.0000  0.0000  0.0000  0.0000  0.0000
  o =  0.7108  v =  0.0000  0.0000  0.0000  1.0000  0.0000  0.0000  0.0000  0.0000  0.0000  0.0000      0.0000  0.0000  0.0000  0.0000  0.0000  0.0000  0.0000  0.0000  0.0000  0.0000
  o =  0.7108  v =  0.0000  0.0000  0.0000  0.0000  1.0000  0.0000  0.0000  0.0000  0.0000  0.0000      0.0000  0.0000  0.0000  0.0000  0.0000  0.0000  0.0000  0.0000  0.0000  0.0000
  o =  0.7108  v =  0.0000  0.0000  0.0000  0.0000  0.0000  1.0000  0.0000  0.0000  0.0000  0.0000      0.0000  0.0000  0.0000  0.0000  0.0000  0.0000  0.0000  0.0000  0.0000  0.0000
  o =  0.7108  v =  0.0000  0.0000  0.0000  0.0000  0.0000  0.0000  1.0000  0.0000  0.0000  0.0000      0.0000  0.0000  0.0000  0.0000  0.0000  0.0000  0.0000  0.0000  0.0000  0.0000
  o =  0.7108  v =  0.0000  0.0000  0.0000  0.0000  0.0000  0.0000  0.0000  0.0000  1.0000  0.0000      0.0000  0.0000  0.0000  0.0000  0.0000  0.0000  0.0000  0.0000  0.0000  0.0000
  o =  0.7108  v =  0.0000  0.0000  0.0000  0.0000  0.0000  0.0000  0.0000  0.0000  0.0000  1.0000      0.0000  0.0000  0.0000  0.0000  0.0000  0.0000  0.0000  0.0000  0.0000  0.0000
  o =  0.7108  v =  0.0000  0.0000  1.0000  0.0000  0.0000  0.0000  0.0000  0.0000  0.0000  0.0000      0.0000  0.0000  0.0000  0.0000  0.0000  0.0000  0.0000  0.0000  0.0000  0.0000
  o =  0.7108  v =  0.0000  0.0000  0.0000  0.0000  0.0000  0.0000  0.0000  1.0000  0.0000  0.0000      0.0000  0.0000  0.0000  0.0000  0.0000  0.0000  0.0000  0.0000  0.0000  0.0000
 
atom =  13  type =  2  l = 2  LDA+U# 1
 
 onsite density matrix
 
spin component  1
 
  0.7108  0.0000  0.0000  0.0000  0.0000
  0.0000  0.7108  0.0000  0.0000  0.0000
  0.0000  0.0000  0.7108  0.0000  0.0000
  0.0000  0.0000  0.0000  0.7108  0.0000
  0.0000  0.0000  0.0000  0.0000  0.7108
 
spin component  2
 
  0.7108  0.0000  0.0000  0.0000  0.0000
  0.0000  0.7108  0.0000  0.0000  0.0000
  0.0000  0.0000  0.7108  0.0000  0.0000
  0.0000  0.0000  0.0000  0.7108  0.0000
  0.0000  0.0000  0.0000  0.0000  0.7108
 
 occupancies and eigenvectors
 
  o =  0.7108  v =  1.0000  0.0000  0.0000  0.0000  0.0000  0.0000  0.0000  0.0000  0.0000  0.0000      0.0000  0.0000  0.0000  0.0000  0.0000  0.0000  0.0000  0.0000  0.0000  0.0000
  o =  0.7108  v =  0.0000  1.0000  0.0000  0.0000  0.0000  0.0000  0.0000  0.0000  0.0000  0.0000      0.0000  0.0000  0.0000  0.0000  0.0000  0.0000  0.0000  0.0000  0.0000  0.0000
  o =  0.7108  v =  0.0000  0.0000  0.0000  1.0000  0.0000  0.0000  0.0000  0.0000  0.0000  0.0000      0.0000  0.0000  0.0000  0.0000  0.0000  0.0000  0.0000  0.0000  0.0000  0.0000
  o =  0.7108  v =  0.0000  0.0000  0.0000  0.0000  1.0000  0.0000  0.0000  0.0000  0.0000  0.0000      0.0000  0.0000  0.0000  0.0000  0.0000  0.0000  0.0000  0.0000  0.0000  0.0000
  o =  0.7108  v =  0.0000  0.0000  0.0000  0.0000  0.0000  1.0000  0.0000  0.0000  0.0000  0.0000      0.0000  0.0000  0.0000  0.0000  0.0000  0.0000  0.0000  0.0000  0.0000  0.0000
  o =  0.7108  v =  0.0000  0.0000  0.0000  0.0000  0.0000  0.0000  1.0000  0.0000  0.0000  0.0000      0.0000  0.0000  0.0000  0.0000  0.0000  0.0000  0.0000  0.0000  0.0000  0.0000
  o =  0.7108  v =  0.0000  0.0000  0.0000  0.0000  0.0000  0.0000  0.0000  0.0000  1.0000  0.0000      0.0000  0.0000  0.0000  0.0000  0.0000  0.0000  0.0000  0.0000  0.0000  0.0000
  o =  0.7108  v =  0.0000  0.0000  0.0000  0.0000  0.0000  0.0000  0.0000  0.0000  0.0000  1.0000      0.0000  0.0000  0.0000  0.0000  0.0000  0.0000  0.0000  0.0000  0.0000  0.0000
  o =  0.7108  v =  0.0000  0.0000  1.0000  0.0000  0.0000  0.0000  0.0000  0.0000  0.0000  0.0000      0.0000  0.0000  0.0000  0.0000  0.0000  0.0000  0.0000  0.0000  0.0000  0.0000
  o =  0.7108  v =  0.0000  0.0000  0.0000  0.0000  0.0000  0.0000  0.0000  1.0000  0.0000  0.0000      0.0000  0.0000  0.0000  0.0000  0.0000  0.0000  0.0000  0.0000  0.0000  0.0000
 
atom =  14  type =  2  l = 2  LDA+U# 1
 
 onsite density matrix
 
spin component  1
 
  0.7108  0.0000  0.0000  0.0000  0.0000
  0.0000  0.7108  0.0000  0.0000  0.0000
  0.0000  0.0000  0.7108  0.0000  0.0000
  0.0000  0.0000  0.0000  0.7108  0.0000
  0.0000  0.0000  0.0000  0.0000  0.7108
 
spin component  2
 
  0.7108  0.0000  0.0000  0.0000  0.0000
  0.0000  0.7108  0.0000  0.0000  0.0000
  0.0000  0.0000  0.7108  0.0000  0.0000
  0.0000  0.0000  0.0000  0.7108  0.0000
  0.0000  0.0000  0.0000  0.0000  0.7108
 
 occupancies and eigenvectors
 
  o =  0.7108  v =  1.0000  0.0000  0.0000  0.0000  0.0000  0.0000  0.0000  0.0000  0.0000  0.0000      0.0000  0.0000  0.0000  0.0000  0.0000  0.0000  0.0000  0.0000  0.0000  0.0000
  o =  0.7108  v =  0.0000  1.0000  0.0000  0.0000  0.0000  0.0000  0.0000  0.0000  0.0000  0.0000      0.0000  0.0000  0.0000  0.0000  0.0000  0.0000  0.0000  0.0000  0.0000  0.0000
  o =  0.7108  v =  0.0000  0.0000  0.0000  1.0000  0.0000  0.0000  0.0000  0.0000  0.0000  0.0000      0.0000  0.0000  0.0000  0.0000  0.0000  0.0000  0.0000  0.0000  0.0000  0.0000
  o =  0.7108  v =  0.0000  0.0000  0.0000  0.0000  1.0000  0.0000  0.0000  0.0000  0.0000  0.0000      0.0000  0.0000  0.0000  0.0000  0.0000  0.0000  0.0000  0.0000  0.0000  0.0000
  o =  0.7108  v =  0.0000  0.0000  0.0000  0.0000  0.0000  1.0000  0.0000  0.0000  0.0000  0.0000      0.0000  0.0000  0.0000  0.0000  0.0000  0.0000  0.0000  0.0000  0.0000  0.0000
  o =  0.7108  v =  0.0000  0.0000  0.0000  0.0000  0.0000  0.0000  1.0000  0.0000  0.0000  0.0000      0.0000  0.0000  0.0000  0.0000  0.0000  0.0000  0.0000  0.0000  0.0000  0.0000
  o =  0.7108  v =  0.0000  0.0000  0.0000  0.0000  0.0000  0.0000  0.0000  0.0000  1.0000  0.0000      0.0000  0.0000  0.0000  0.0000  0.0000  0.0000  0.0000  0.0000  0.0000  0.0000
  o =  0.7108  v =  0.0000  0.0000  0.0000  0.0000  0.0000  0.0000  0.0000  0.0000  0.0000  1.0000      0.0000  0.0000  0.0000  0.0000  0.0000  0.0000  0.0000  0.0000  0.0000  0.0000
  o =  0.7108  v =  0.0000  0.0000  1.0000  0.0000  0.0000  0.0000  0.0000  0.0000  0.0000  0.0000      0.0000  0.0000  0.0000  0.0000  0.0000  0.0000  0.0000  0.0000  0.0000  0.0000
  o =  0.7108  v =  0.0000  0.0000  0.0000  0.0000  0.0000  0.0000  0.0000  1.0000  0.0000  0.0000      0.0000  0.0000  0.0000  0.0000  0.0000  0.0000  0.0000  0.0000  0.0000  0.0000
 
atom =  15  type =  2  l = 2  LDA+U# 1
 
 onsite density matrix
 
spin component  1
 
  0.7108  0.0000  0.0000  0.0000  0.0000
  0.0000  0.7108  0.0000  0.0000  0.0000
  0.0000  0.0000  0.7108  0.0000  0.0000
  0.0000  0.0000  0.0000  0.7108  0.0000
  0.0000  0.0000  0.0000  0.0000  0.7108
 
spin component  2
 
  0.7108  0.0000  0.0000  0.0000  0.0000
  0.0000  0.7108  0.0000  0.0000  0.0000
  0.0000  0.0000  0.7108  0.0000  0.0000
  0.0000  0.0000  0.0000  0.7108  0.0000
  0.0000  0.0000  0.0000  0.0000  0.7108
 
 occupancies and eigenvectors
 
  o =  0.7108  v =  1.0000  0.0000  0.0000  0.0000  0.0000  0.0000  0.0000  0.0000  0.0000  0.0000      0.0000  0.0000  0.0000  0.0000  0.0000  0.0000  0.0000  0.0000  0.0000  0.0000
  o =  0.7108  v =  0.0000  1.0000  0.0000  0.0000  0.0000  0.0000  0.0000  0.0000  0.0000  0.0000      0.0000  0.0000  0.0000  0.0000  0.0000  0.0000  0.0000  0.0000  0.0000  0.0000
  o =  0.7108  v =  0.0000  0.0000  0.0000  1.0000  0.0000  0.0000  0.0000  0.0000  0.0000  0.0000      0.0000  0.0000  0.0000  0.0000  0.0000  0.0000  0.0000  0.0000  0.0000  0.0000
  o =  0.7108  v =  0.0000  0.0000  0.0000  0.0000  1.0000  0.0000  0.0000  0.0000  0.0000  0.0000      0.0000  0.0000  0.0000  0.0000  0.0000  0.0000  0.0000  0.0000  0.0000  0.0000
  o =  0.7108  v =  0.0000  0.0000  0.0000  0.0000  0.0000  1.0000  0.0000  0.0000  0.0000  0.0000      0.0000  0.0000  0.0000  0.0000  0.0000  0.0000  0.0000  0.0000  0.0000  0.0000
  o =  0.7108  v =  0.0000  0.0000  0.0000  0.0000  0.0000  0.0000  1.0000  0.0000  0.0000  0.0000      0.0000  0.0000  0.0000  0.0000  0.0000  0.0000  0.0000  0.0000  0.0000  0.0000
  o =  0.7108  v =  0.0000  0.0000  0.0000  0.0000  0.0000  0.0000  0.0000  0.0000  1.0000  0.0000      0.0000  0.0000  0.0000  0.0000  0.0000  0.0000  0.0000  0.0000  0.0000  0.0000
  o =  0.7108  v =  0.0000  0.0000  0.0000  0.0000  0.0000  0.0000  0.0000  0.0000  0.0000  1.0000      0.0000  0.0000  0.0000  0.0000  0.0000  0.0000  0.0000  0.0000  0.0000  0.0000
  o =  0.7108  v =  0.0000  0.0000  1.0000  0.0000  0.0000  0.0000  0.0000  0.0000  0.0000  0.0000      0.0000  0.0000  0.0000  0.0000  0.0000  0.0000  0.0000  0.0000  0.0000  0.0000
  o =  0.7108  v =  0.0000  0.0000  0.0000  0.0000  0.0000  0.0000  0.0000  1.0000  0.0000  0.0000      0.0000  0.0000  0.0000  0.0000  0.0000  0.0000  0.0000  0.0000  0.0000  0.0000
 
atom =  16  type =  2  l = 2  LDA+U# 1
 
 onsite density matrix
 
spin component  1
 
  0.7108  0.0000  0.0000  0.0000  0.0000
  0.0000  0.7108  0.0000  0.0000  0.0000
  0.0000  0.0000  0.7108  0.0000  0.0000
  0.0000  0.0000  0.0000  0.7108  0.0000
  0.0000  0.0000  0.0000  0.0000  0.7108
 
spin component  2
 
  0.7108  0.0000  0.0000  0.0000  0.0000
  0.0000  0.7108  0.0000  0.0000  0.0000
  0.0000  0.0000  0.7108  0.0000  0.0000
  0.0000  0.0000  0.0000  0.7108  0.0000
  0.0000  0.0000  0.0000  0.0000  0.7108
 
 occupancies and eigenvectors
 
  o =  0.7108  v =  1.0000  0.0000  0.0000  0.0000  0.0000  0.0000  0.0000  0.0000  0.0000  0.0000      0.0000  0.0000  0.0000  0.0000  0.0000  0.0000  0.0000  0.0000  0.0000  0.0000
  o =  0.7108  v =  0.0000  1.0000  0.0000  0.0000  0.0000  0.0000  0.0000  0.0000  0.0000  0.0000      0.0000  0.0000  0.0000  0.0000  0.0000  0.0000  0.0000  0.0000  0.0000  0.0000
  o =  0.7108  v =  0.0000  0.0000  0.0000  1.0000  0.0000  0.0000  0.0000  0.0000  0.0000  0.0000      0.0000  0.0000  0.0000  0.0000  0.0000  0.0000  0.0000  0.0000  0.0000  0.0000
  o =  0.7108  v =  0.0000  0.0000  0.0000  0.0000  1.0000  0.0000  0.0000  0.0000  0.0000  0.0000      0.0000  0.0000  0.0000  0.0000  0.0000  0.0000  0.0000  0.0000  0.0000  0.0000
  o =  0.7108  v =  0.0000  0.0000  0.0000  0.0000  0.0000  1.0000  0.0000  0.0000  0.0000  0.0000      0.0000  0.0000  0.0000  0.0000  0.0000  0.0000  0.0000  0.0000  0.0000  0.0000
  o =  0.7108  v =  0.0000  0.0000  0.0000  0.0000  0.0000  0.0000  1.0000  0.0000  0.0000  0.0000      0.0000  0.0000  0.0000  0.0000  0.0000  0.0000  0.0000  0.0000  0.0000  0.0000
  o =  0.7108  v =  0.0000  0.0000  0.0000  0.0000  0.0000  0.0000  0.0000  0.0000  1.0000  0.0000      0.0000  0.0000  0.0000  0.0000  0.0000  0.0000  0.0000  0.0000  0.0000  0.0000
  o =  0.7108  v =  0.0000  0.0000  0.0000  0.0000  0.0000  0.0000  0.0000  0.0000  0.0000  1.0000      0.0000  0.0000  0.0000  0.0000  0.0000  0.0000  0.0000  0.0000  0.0000  0.0000
  o =  0.7108  v =  0.0000  0.0000  1.0000  0.0000  0.0000  0.0000  0.0000  0.0000  0.0000  0.0000      0.0000  0.0000  0.0000  0.0000  0.0000  0.0000  0.0000  0.0000  0.0000  0.0000
  o =  0.7108  v =  0.0000  0.0000  0.0000  0.0000  0.0000  0.0000  0.0000  1.0000  0.0000  0.0000      0.0000  0.0000  0.0000  0.0000  0.0000  0.0000  0.0000  0.0000  0.0000  0.0000
 
atom =  17  type =  2  l = 2  LDA+U# 1
 
 onsite density matrix
 
spin component  1
 
  0.7108  0.0000  0.0000  0.0000  0.0000
  0.0000  0.7108  0.0000  0.0000  0.0000
  0.0000  0.0000  0.7108  0.0000  0.0000
  0.0000  0.0000  0.0000  0.7108  0.0000
  0.0000  0.0000  0.0000  0.0000  0.7108
 
spin component  2
 
  0.7108  0.0000  0.0000  0.0000  0.0000
  0.0000  0.7108  0.0000  0.0000  0.0000
  0.0000  0.0000  0.7108  0.0000  0.0000
  0.0000  0.0000  0.0000  0.7108  0.0000
  0.0000  0.0000  0.0000  0.0000  0.7108
 
 occupancies and eigenvectors
 
  o =  0.7108  v =  1.0000  0.0000  0.0000  0.0000  0.0000  0.0000  0.0000  0.0000  0.0000  0.0000      0.0000  0.0000  0.0000  0.0000  0.0000  0.0000  0.0000  0.0000  0.0000  0.0000
  o =  0.7108  v =  0.0000  1.0000  0.0000  0.0000  0.0000  0.0000  0.0000  0.0000  0.0000  0.0000      0.0000  0.0000  0.0000  0.0000  0.0000  0.0000  0.0000  0.0000  0.0000  0.0000
  o =  0.7108  v =  0.0000  0.0000  0.0000  1.0000  0.0000  0.0000  0.0000  0.0000  0.0000  0.0000      0.0000  0.0000  0.0000  0.0000  0.0000  0.0000  0.0000  0.0000  0.0000  0.0000
  o =  0.7108  v =  0.0000  0.0000  0.0000  0.0000  1.0000  0.0000  0.0000  0.0000  0.0000  0.0000      0.0000  0.0000  0.0000  0.0000  0.0000  0.0000  0.0000  0.0000  0.0000  0.0000
  o =  0.7108  v =  0.0000  0.0000  0.0000  0.0000  0.0000  1.0000  0.0000  0.0000  0.0000  0.0000      0.0000  0.0000  0.0000  0.0000  0.0000  0.0000  0.0000  0.0000  0.0000  0.0000
  o =  0.7108  v =  0.0000  0.0000  0.0000  0.0000  0.0000  0.0000  1.0000  0.0000  0.0000  0.0000      0.0000  0.0000  0.0000  0.0000  0.0000  0.0000  0.0000  0.0000  0.0000  0.0000
  o =  0.7108  v =  0.0000  0.0000  0.0000  0.0000  0.0000  0.0000  0.0000  0.0000  1.0000  0.0000      0.0000  0.0000  0.0000  0.0000  0.0000  0.0000  0.0000  0.0000  0.0000  0.0000
  o =  0.7108  v =  0.0000  0.0000  0.0000  0.0000  0.0000  0.0000  0.0000  0.0000  0.0000  1.0000      0.0000  0.0000  0.0000  0.0000  0.0000  0.0000  0.0000  0.0000  0.0000  0.0000
  o =  0.7108  v =  0.0000  0.0000  1.0000  0.0000  0.0000  0.0000  0.0000  0.0000  0.0000  0.0000      0.0000  0.0000  0.0000  0.0000  0.0000  0.0000  0.0000  0.0000  0.0000  0.0000
  o =  0.7108  v =  0.0000  0.0000  0.0000  0.0000  0.0000  0.0000  0.0000  1.0000  0.0000  0.0000      0.0000  0.0000  0.0000  0.0000  0.0000  0.0000  0.0000  0.0000  0.0000  0.0000
 
atom =  18  type =  2  l = 2  LDA+U# 1
 
 onsite density matrix
 
spin component  1
 
  0.7108  0.0000  0.0000  0.0000  0.0000
  0.0000  0.7108  0.0000  0.0000  0.0000
  0.0000  0.0000  0.7108  0.0000  0.0000
  0.0000  0.0000  0.0000  0.7108  0.0000
  0.0000  0.0000  0.0000  0.0000  0.7108
 
spin component  2
 
  0.7108  0.0000  0.0000  0.0000  0.0000
  0.0000  0.7108  0.0000  0.0000  0.0000
  0.0000  0.0000  0.7108  0.0000  0.0000
  0.0000  0.0000  0.0000  0.7108  0.0000
  0.0000  0.0000  0.0000  0.0000  0.7108
 
 occupancies and eigenvectors
 
  o =  0.7108  v =  1.0000  0.0000  0.0000  0.0000  0.0000  0.0000  0.0000  0.0000  0.0000  0.0000      0.0000  0.0000  0.0000  0.0000  0.0000  0.0000  0.0000  0.0000  0.0000  0.0000
  o =  0.7108  v =  0.0000  1.0000  0.0000  0.0000  0.0000  0.0000  0.0000  0.0000  0.0000  0.0000      0.0000  0.0000  0.0000  0.0000  0.0000  0.0000  0.0000  0.0000  0.0000  0.0000
  o =  0.7108  v =  0.0000  0.0000  0.0000  1.0000  0.0000  0.0000  0.0000  0.0000  0.0000  0.0000      0.0000  0.0000  0.0000  0.0000  0.0000  0.0000  0.0000  0.0000  0.0000  0.0000
  o =  0.7108  v =  0.0000  0.0000  0.0000  0.0000  1.0000  0.0000  0.0000  0.0000  0.0000  0.0000      0.0000  0.0000  0.0000  0.0000  0.0000  0.0000  0.0000  0.0000  0.0000  0.0000
  o =  0.7108  v =  0.0000  0.0000  0.0000  0.0000  0.0000  1.0000  0.0000  0.0000  0.0000  0.0000      0.0000  0.0000  0.0000  0.0000  0.0000  0.0000  0.0000  0.0000  0.0000  0.0000
  o =  0.7108  v =  0.0000  0.0000  0.0000  0.0000  0.0000  0.0000  1.0000  0.0000  0.0000  0.0000      0.0000  0.0000  0.0000  0.0000  0.0000  0.0000  0.0000  0.0000  0.0000  0.0000
  o =  0.7108  v =  0.0000  0.0000  0.0000  0.0000  0.0000  0.0000  0.0000  0.0000  1.0000  0.0000      0.0000  0.0000  0.0000  0.0000  0.0000  0.0000  0.0000  0.0000  0.0000  0.0000
  o =  0.7108  v =  0.0000  0.0000  0.0000  0.0000  0.0000  0.0000  0.0000  0.0000  0.0000  1.0000      0.0000  0.0000  0.0000  0.0000  0.0000  0.0000  0.0000  0.0000  0.0000  0.0000
  o =  0.7108  v =  0.0000  0.0000  1.0000  0.0000  0.0000  0.0000  0.0000  0.0000  0.0000  0.0000      0.0000  0.0000  0.0000  0.0000  0.0000  0.0000  0.0000  0.0000  0.0000  0.0000
  o =  0.7108  v =  0.0000  0.0000  0.0000  0.0000  0.0000  0.0000  0.0000  1.0000  0.0000  0.0000      0.0000  0.0000  0.0000  0.0000  0.0000  0.0000  0.0000  0.0000  0.0000  0.0000
 
atom =  19  type =  2  l = 2  LDA+U# 1
 
 onsite density matrix
 
spin component  1
 
  0.7108  0.0000  0.0000  0.0000  0.0000
  0.0000  0.7108  0.0000  0.0000  0.0000
  0.0000  0.0000  0.7108  0.0000  0.0000
  0.0000  0.0000  0.0000  0.7108  0.0000
  0.0000  0.0000  0.0000  0.0000  0.7108
 
spin component  2
 
  0.7108  0.0000  0.0000  0.0000  0.0000
  0.0000  0.7108  0.0000  0.0000  0.0000
  0.0000  0.0000  0.7108  0.0000  0.0000
  0.0000  0.0000  0.0000  0.7108  0.0000
  0.0000  0.0000  0.0000  0.0000  0.7108
 
 occupancies and eigenvectors
 
  o =  0.7108  v =  1.0000  0.0000  0.0000  0.0000  0.0000  0.0000  0.0000  0.0000  0.0000  0.0000      0.0000  0.0000  0.0000  0.0000  0.0000  0.0000  0.0000  0.0000  0.0000  0.0000
  o =  0.7108  v =  0.0000  1.0000  0.0000  0.0000  0.0000  0.0000  0.0000  0.0000  0.0000  0.0000      0.0000  0.0000  0.0000  0.0000  0.0000  0.0000  0.0000  0.0000  0.0000  0.0000
  o =  0.7108  v =  0.0000  0.0000  0.0000  1.0000  0.0000  0.0000  0.0000  0.0000  0.0000  0.0000      0.0000  0.0000  0.0000  0.0000  0.0000  0.0000  0.0000  0.0000  0.0000  0.0000
  o =  0.7108  v =  0.0000  0.0000  0.0000  0.0000  1.0000  0.0000  0.0000  0.0000  0.0000  0.0000      0.0000  0.0000  0.0000  0.0000  0.0000  0.0000  0.0000  0.0000  0.0000  0.0000
  o =  0.7108  v =  0.0000  0.0000  0.0000  0.0000  0.0000  1.0000  0.0000  0.0000  0.0000  0.0000      0.0000  0.0000  0.0000  0.0000  0.0000  0.0000  0.0000  0.0000  0.0000  0.0000
  o =  0.7108  v =  0.0000  0.0000  0.0000  0.0000  0.0000  0.0000  1.0000  0.0000  0.0000  0.0000      0.0000  0.0000  0.0000  0.0000  0.0000  0.0000  0.0000  0.0000  0.0000  0.0000
  o =  0.7108  v =  0.0000  0.0000  0.0000  0.0000  0.0000  0.0000  0.0000  0.0000  1.0000  0.0000      0.0000  0.0000  0.0000  0.0000  0.0000  0.0000  0.0000  0.0000  0.0000  0.0000
  o =  0.7108  v =  0.0000  0.0000  0.0000  0.0000  0.0000  0.0000  0.0000  0.0000  0.0000  1.0000      0.0000  0.0000  0.0000  0.0000  0.0000  0.0000  0.0000  0.0000  0.0000  0.0000
  o =  0.7108  v =  0.0000  0.0000  1.0000  0.0000  0.0000  0.0000  0.0000  0.0000  0.0000  0.0000      0.0000  0.0000  0.0000  0.0000  0.0000  0.0000  0.0000  0.0000  0.0000  0.0000
  o =  0.7108  v =  0.0000  0.0000  0.0000  0.0000  0.0000  0.0000  0.0000  1.0000  0.0000  0.0000      0.0000  0.0000  0.0000  0.0000  0.0000  0.0000  0.0000  0.0000  0.0000  0.0000
 
atom =  20  type =  2  l = 2  LDA+U# 1
 
 onsite density matrix
 
spin component  1
 
  0.7108  0.0000  0.0000  0.0000  0.0000
  0.0000  0.7108  0.0000  0.0000  0.0000
  0.0000  0.0000  0.7108  0.0000  0.0000
  0.0000  0.0000  0.0000  0.7108  0.0000
  0.0000  0.0000  0.0000  0.0000  0.7108
 
spin component  2
 
  0.7108  0.0000  0.0000  0.0000  0.0000
  0.0000  0.7108  0.0000  0.0000  0.0000
  0.0000  0.0000  0.7108  0.0000  0.0000
  0.0000  0.0000  0.0000  0.7108  0.0000
  0.0000  0.0000  0.0000  0.0000  0.7108
 
 occupancies and eigenvectors
 
  o =  0.7108  v =  1.0000  0.0000  0.0000  0.0000  0.0000  0.0000  0.0000  0.0000  0.0000  0.0000      0.0000  0.0000  0.0000  0.0000  0.0000  0.0000  0.0000  0.0000  0.0000  0.0000
  o =  0.7108  v =  0.0000  1.0000  0.0000  0.0000  0.0000  0.0000  0.0000  0.0000  0.0000  0.0000      0.0000  0.0000  0.0000  0.0000  0.0000  0.0000  0.0000  0.0000  0.0000  0.0000
  o =  0.7108  v =  0.0000  0.0000  0.0000  1.0000  0.0000  0.0000  0.0000  0.0000  0.0000  0.0000      0.0000  0.0000  0.0000  0.0000  0.0000  0.0000  0.0000  0.0000  0.0000  0.0000
  o =  0.7108  v =  0.0000  0.0000  0.0000  0.0000  1.0000  0.0000  0.0000  0.0000  0.0000  0.0000      0.0000  0.0000  0.0000  0.0000  0.0000  0.0000  0.0000  0.0000  0.0000  0.0000
  o =  0.7108  v =  0.0000  0.0000  0.0000  0.0000  0.0000  1.0000  0.0000  0.0000  0.0000  0.0000      0.0000  0.0000  0.0000  0.0000  0.0000  0.0000  0.0000  0.0000  0.0000  0.0000
  o =  0.7108  v =  0.0000  0.0000  0.0000  0.0000  0.0000  0.0000  1.0000  0.0000  0.0000  0.0000      0.0000  0.0000  0.0000  0.0000  0.0000  0.0000  0.0000  0.0000  0.0000  0.0000
  o =  0.7108  v =  0.0000  0.0000  0.0000  0.0000  0.0000  0.0000  0.0000  0.0000  1.0000  0.0000      0.0000  0.0000  0.0000  0.0000  0.0000  0.0000  0.0000  0.0000  0.0000  0.0000
  o =  0.7108  v =  0.0000  0.0000  0.0000  0.0000  0.0000  0.0000  0.0000  0.0000  0.0000  1.0000      0.0000  0.0000  0.0000  0.0000  0.0000  0.0000  0.0000  0.0000  0.0000  0.0000
  o =  0.7108  v =  0.0000  0.0000  1.0000  0.0000  0.0000  0.0000  0.0000  0.0000  0.0000  0.0000      0.0000  0.0000  0.0000  0.0000  0.0000  0.0000  0.0000  0.0000  0.0000  0.0000
  o =  0.7108  v =  0.0000  0.0000  0.0000  0.0000  0.0000  0.0000  0.0000  1.0000  0.0000  0.0000      0.0000  0.0000  0.0000  0.0000  0.0000  0.0000  0.0000  0.0000  0.0000  0.0000
 
atom =  21  type =  2  l = 2  LDA+U# 1
 
 onsite density matrix
 
spin component  1
 
  0.7108  0.0000  0.0000  0.0000  0.0000
  0.0000  0.7108  0.0000  0.0000  0.0000
  0.0000  0.0000  0.7108  0.0000  0.0000
  0.0000  0.0000  0.0000  0.7108  0.0000
  0.0000  0.0000  0.0000  0.0000  0.7108
 
spin component  2
 
  0.7108  0.0000  0.0000  0.0000  0.0000
  0.0000  0.7108  0.0000  0.0000  0.0000
  0.0000  0.0000  0.7108  0.0000  0.0000
  0.0000  0.0000  0.0000  0.7108  0.0000
  0.0000  0.0000  0.0000  0.0000  0.7108
 
 occupancies and eigenvectors
 
  o =  0.7108  v =  1.0000  0.0000  0.0000  0.0000  0.0000  0.0000  0.0000  0.0000  0.0000  0.0000      0.0000  0.0000  0.0000  0.0000  0.0000  0.0000  0.0000  0.0000  0.0000  0.0000
  o =  0.7108  v =  0.0000  1.0000  0.0000  0.0000  0.0000  0.0000  0.0000  0.0000  0.0000  0.0000      0.0000  0.0000  0.0000  0.0000  0.0000  0.0000  0.0000  0.0000  0.0000  0.0000
  o =  0.7108  v =  0.0000  0.0000  0.0000  1.0000  0.0000  0.0000  0.0000  0.0000  0.0000  0.0000      0.0000  0.0000  0.0000  0.0000  0.0000  0.0000  0.0000  0.0000  0.0000  0.0000
  o =  0.7108  v =  0.0000  0.0000  0.0000  0.0000  1.0000  0.0000  0.0000  0.0000  0.0000  0.0000      0.0000  0.0000  0.0000  0.0000  0.0000  0.0000  0.0000  0.0000  0.0000  0.0000
  o =  0.7108  v =  0.0000  0.0000  0.0000  0.0000  0.0000  1.0000  0.0000  0.0000  0.0000  0.0000      0.0000  0.0000  0.0000  0.0000  0.0000  0.0000  0.0000  0.0000  0.0000  0.0000
  o =  0.7108  v =  0.0000  0.0000  0.0000  0.0000  0.0000  0.0000  1.0000  0.0000  0.0000  0.0000      0.0000  0.0000  0.0000  0.0000  0.0000  0.0000  0.0000  0.0000  0.0000  0.0000
  o =  0.7108  v =  0.0000  0.0000  0.0000  0.0000  0.0000  0.0000  0.0000  0.0000  1.0000  0.0000      0.0000  0.0000  0.0000  0.0000  0.0000  0.0000  0.0000  0.0000  0.0000  0.0000
  o =  0.7108  v =  0.0000  0.0000  0.0000  0.0000  0.0000  0.0000  0.0000  0.0000  0.0000  1.0000      0.0000  0.0000  0.0000  0.0000  0.0000  0.0000  0.0000  0.0000  0.0000  0.0000
  o =  0.7108  v =  0.0000  0.0000  1.0000  0.0000  0.0000  0.0000  0.0000  0.0000  0.0000  0.0000      0.0000  0.0000  0.0000  0.0000  0.0000  0.0000  0.0000  0.0000  0.0000  0.0000
  o =  0.7108  v =  0.0000  0.0000  0.0000  0.0000  0.0000  0.0000  0.0000  1.0000  0.0000  0.0000      0.0000  0.0000  0.0000  0.0000  0.0000  0.0000  0.0000  0.0000  0.0000  0.0000
 
atom =  22  type =  2  l = 2  LDA+U# 1
 
 onsite density matrix
 
spin component  1
 
  0.7108  0.0000  0.0000  0.0000  0.0000
  0.0000  0.7108  0.0000  0.0000  0.0000
  0.0000  0.0000  0.7108  0.0000  0.0000
  0.0000  0.0000  0.0000  0.7108  0.0000
  0.0000  0.0000  0.0000  0.0000  0.7108
 
spin component  2
 
  0.7108  0.0000  0.0000  0.0000  0.0000
  0.0000  0.7108  0.0000  0.0000  0.0000
  0.0000  0.0000  0.7108  0.0000  0.0000
  0.0000  0.0000  0.0000  0.7108  0.0000
  0.0000  0.0000  0.0000  0.0000  0.7108
 
 occupancies and eigenvectors
 
  o =  0.7108  v =  1.0000  0.0000  0.0000  0.0000  0.0000  0.0000  0.0000  0.0000  0.0000  0.0000      0.0000  0.0000  0.0000  0.0000  0.0000  0.0000  0.0000  0.0000  0.0000  0.0000
  o =  0.7108  v =  0.0000  1.0000  0.0000  0.0000  0.0000  0.0000  0.0000  0.0000  0.0000  0.0000      0.0000  0.0000  0.0000  0.0000  0.0000  0.0000  0.0000  0.0000  0.0000  0.0000
  o =  0.7108  v =  0.0000  0.0000  0.0000  1.0000  0.0000  0.0000  0.0000  0.0000  0.0000  0.0000      0.0000  0.0000  0.0000  0.0000  0.0000  0.0000  0.0000  0.0000  0.0000  0.0000
  o =  0.7108  v =  0.0000  0.0000  0.0000  0.0000  1.0000  0.0000  0.0000  0.0000  0.0000  0.0000      0.0000  0.0000  0.0000  0.0000  0.0000  0.0000  0.0000  0.0000  0.0000  0.0000
  o =  0.7108  v =  0.0000  0.0000  0.0000  0.0000  0.0000  1.0000  0.0000  0.0000  0.0000  0.0000      0.0000  0.0000  0.0000  0.0000  0.0000  0.0000  0.0000  0.0000  0.0000  0.0000
  o =  0.7108  v =  0.0000  0.0000  0.0000  0.0000  0.0000  0.0000  1.0000  0.0000  0.0000  0.0000      0.0000  0.0000  0.0000  0.0000  0.0000  0.0000  0.0000  0.0000  0.0000  0.0000
  o =  0.7108  v =  0.0000  0.0000  0.0000  0.0000  0.0000  0.0000  0.0000  0.0000  1.0000  0.0000      0.0000  0.0000  0.0000  0.0000  0.0000  0.0000  0.0000  0.0000  0.0000  0.0000
  o =  0.7108  v =  0.0000  0.0000  0.0000  0.0000  0.0000  0.0000  0.0000  0.0000  0.0000  1.0000      0.0000  0.0000  0.0000  0.0000  0.0000  0.0000  0.0000  0.0000  0.0000  0.0000
  o =  0.7108  v =  0.0000  0.0000  1.0000  0.0000  0.0000  0.0000  0.0000  0.0000  0.0000  0.0000      0.0000  0.0000  0.0000  0.0000  0.0000  0.0000  0.0000  0.0000  0.0000  0.0000
  o =  0.7108  v =  0.0000  0.0000  0.0000  0.0000  0.0000  0.0000  0.0000  1.0000  0.0000  0.0000      0.0000  0.0000  0.0000  0.0000  0.0000  0.0000  0.0000  0.0000  0.0000  0.0000
 
atom =  23  type =  2  l = 2  LDA+U# 1
 
 onsite density matrix
 
spin component  1
 
  0.7108  0.0000  0.0000  0.0000  0.0000
  0.0000  0.7108  0.0000  0.0000  0.0000
  0.0000  0.0000  0.7108  0.0000  0.0000
  0.0000  0.0000  0.0000  0.7108  0.0000
  0.0000  0.0000  0.0000  0.0000  0.7108
 
spin component  2
 
  0.7108  0.0000  0.0000  0.0000  0.0000
  0.0000  0.7108  0.0000  0.0000  0.0000
  0.0000  0.0000  0.7108  0.0000  0.0000
  0.0000  0.0000  0.0000  0.7108  0.0000
  0.0000  0.0000  0.0000  0.0000  0.7108
 
 occupancies and eigenvectors
 
  o =  0.7108  v =  1.0000  0.0000  0.0000  0.0000  0.0000  0.0000  0.0000  0.0000  0.0000  0.0000      0.0000  0.0000  0.0000  0.0000  0.0000  0.0000  0.0000  0.0000  0.0000  0.0000
  o =  0.7108  v =  0.0000  1.0000  0.0000  0.0000  0.0000  0.0000  0.0000  0.0000  0.0000  0.0000      0.0000  0.0000  0.0000  0.0000  0.0000  0.0000  0.0000  0.0000  0.0000  0.0000
  o =  0.7108  v =  0.0000  0.0000  0.0000  1.0000  0.0000  0.0000  0.0000  0.0000  0.0000  0.0000      0.0000  0.0000  0.0000  0.0000  0.0000  0.0000  0.0000  0.0000  0.0000  0.0000
  o =  0.7108  v =  0.0000  0.0000  0.0000  0.0000  1.0000  0.0000  0.0000  0.0000  0.0000  0.0000      0.0000  0.0000  0.0000  0.0000  0.0000  0.0000  0.0000  0.0000  0.0000  0.0000
  o =  0.7108  v =  0.0000  0.0000  0.0000  0.0000  0.0000  1.0000  0.0000  0.0000  0.0000  0.0000      0.0000  0.0000  0.0000  0.0000  0.0000  0.0000  0.0000  0.0000  0.0000  0.0000
  o =  0.7108  v =  0.0000  0.0000  0.0000  0.0000  0.0000  0.0000  1.0000  0.0000  0.0000  0.0000      0.0000  0.0000  0.0000  0.0000  0.0000  0.0000  0.0000  0.0000  0.0000  0.0000
  o =  0.7108  v =  0.0000  0.0000  0.0000  0.0000  0.0000  0.0000  0.0000  0.0000  1.0000  0.0000      0.0000  0.0000  0.0000  0.0000  0.0000  0.0000  0.0000  0.0000  0.0000  0.0000
  o =  0.7108  v =  0.0000  0.0000  0.0000  0.0000  0.0000  0.0000  0.0000  0.0000  0.0000  1.0000      0.0000  0.0000  0.0000  0.0000  0.0000  0.0000  0.0000  0.0000  0.0000  0.0000
  o =  0.7108  v =  0.0000  0.0000  1.0000  0.0000  0.0000  0.0000  0.0000  0.0000  0.0000  0.0000      0.0000  0.0000  0.0000  0.0000  0.0000  0.0000  0.0000  0.0000  0.0000  0.0000
  o =  0.7108  v =  0.0000  0.0000  0.0000  0.0000  0.0000  0.0000  0.0000  1.0000  0.0000  0.0000      0.0000  0.0000  0.0000  0.0000  0.0000  0.0000  0.0000  0.0000  0.0000  0.0000
 
atom =  24  type =  2  l = 2  LDA+U# 1
 
 onsite density matrix
 
spin component  1
 
  0.7108  0.0000  0.0000  0.0000  0.0000
  0.0000  0.7108  0.0000  0.0000  0.0000
  0.0000  0.0000  0.7108  0.0000  0.0000
  0.0000  0.0000  0.0000  0.7108  0.0000
  0.0000  0.0000  0.0000  0.0000  0.7108
 
spin component  2
 
  0.7108  0.0000  0.0000  0.0000  0.0000
  0.0000  0.7108  0.0000  0.0000  0.0000
  0.0000  0.0000  0.7108  0.0000  0.0000
  0.0000  0.0000  0.0000  0.7108  0.0000
  0.0000  0.0000  0.0000  0.0000  0.7108
 
 occupancies and eigenvectors
 
  o =  0.7108  v =  1.0000  0.0000  0.0000  0.0000  0.0000  0.0000  0.0000  0.0000  0.0000  0.0000      0.0000  0.0000  0.0000  0.0000  0.0000  0.0000  0.0000  0.0000  0.0000  0.0000
  o =  0.7108  v =  0.0000  1.0000  0.0000  0.0000  0.0000  0.0000  0.0000  0.0000  0.0000  0.0000      0.0000  0.0000  0.0000  0.0000  0.0000  0.0000  0.0000  0.0000  0.0000  0.0000
  o =  0.7108  v =  0.0000  0.0000  0.0000  1.0000  0.0000  0.0000  0.0000  0.0000  0.0000  0.0000      0.0000  0.0000  0.0000  0.0000  0.0000  0.0000  0.0000  0.0000  0.0000  0.0000
  o =  0.7108  v =  0.0000  0.0000  0.0000  0.0000  1.0000  0.0000  0.0000  0.0000  0.0000  0.0000      0.0000  0.0000  0.0000  0.0000  0.0000  0.0000  0.0000  0.0000  0.0000  0.0000
  o =  0.7108  v =  0.0000  0.0000  0.0000  0.0000  0.0000  1.0000  0.0000  0.0000  0.0000  0.0000      0.0000  0.0000  0.0000  0.0000  0.0000  0.0000  0.0000  0.0000  0.0000  0.0000
  o =  0.7108  v =  0.0000  0.0000  0.0000  0.0000  0.0000  0.0000  1.0000  0.0000  0.0000  0.0000      0.0000  0.0000  0.0000  0.0000  0.0000  0.0000  0.0000  0.0000  0.0000  0.0000
  o =  0.7108  v =  0.0000  0.0000  0.0000  0.0000  0.0000  0.0000  0.0000  0.0000  1.0000  0.0000      0.0000  0.0000  0.0000  0.0000  0.0000  0.0000  0.0000  0.0000  0.0000  0.0000
  o =  0.7108  v =  0.0000  0.0000  0.0000  0.0000  0.0000  0.0000  0.0000  0.0000  0.0000  1.0000      0.0000  0.0000  0.0000  0.0000  0.0000  0.0000  0.0000  0.0000  0.0000  0.0000
  o =  0.7108  v =  0.0000  0.0000  1.0000  0.0000  0.0000  0.0000  0.0000  0.0000  0.0000  0.0000      0.0000  0.0000  0.0000  0.0000  0.0000  0.0000  0.0000  0.0000  0.0000  0.0000
  o =  0.7108  v =  0.0000  0.0000  0.0000  0.0000  0.0000  0.0000  0.0000  1.0000  0.0000  0.0000      0.0000  0.0000  0.0000  0.0000  0.0000  0.0000  0.0000  0.0000  0.0000  0.0000
 
atom =  25  type =  3  l = 1  LDA+U# 1
 
 onsite density matrix
 
spin component  1
 
  0.5537  0.0000  0.0000
  0.0000  0.5537  0.0000
  0.0000  0.0000  0.5537
 
spin component  2
 
  0.5537  0.0000  0.0000
  0.0000  0.5537  0.0000
  0.0000  0.0000  0.5537
 
 occupancies and eigenvectors
 
  o =  0.5537  v =  1.0000  0.0000  0.0000  0.0000  0.0000  0.0000      0.0000  0.0000  0.0000  0.0000  0.0000  0.0000
  o =  0.5537  v =  0.0000  1.0000  0.0000  0.0000  0.0000  0.0000      0.0000  0.0000  0.0000  0.0000  0.0000  0.0000
  o =  0.5537  v =  0.0000  0.0000  1.0000  0.0000  0.0000  0.0000      0.0000  0.0000  0.0000  0.0000  0.0000  0.0000
  o =  0.5537  v =  0.0000  0.0000  0.0000  1.0000  0.0000  0.0000      0.0000  0.0000  0.0000  0.0000  0.0000  0.0000
  o =  0.5537  v =  0.0000  0.0000  0.0000  0.0000  1.0000  0.0000      0.0000  0.0000  0.0000  0.0000  0.0000  0.0000
  o =  0.5537  v =  0.0000  0.0000  0.0000  0.0000  0.0000  1.0000      0.0000  0.0000  0.0000  0.0000  0.0000  0.0000
 
atom =  26  type =  3  l = 1  LDA+U# 1
 
 onsite density matrix
 
spin component  1
 
  0.5537  0.0000  0.0000
  0.0000  0.5537  0.0000
  0.0000  0.0000  0.5537
 
spin component  2
 
  0.5537  0.0000  0.0000
  0.0000  0.5537  0.0000
  0.0000  0.0000  0.5537
 
 occupancies and eigenvectors
 
  o =  0.5537  v =  1.0000  0.0000  0.0000  0.0000  0.0000  0.0000      0.0000  0.0000  0.0000  0.0000  0.0000  0.0000
  o =  0.5537  v =  0.0000  1.0000  0.0000  0.0000  0.0000  0.0000      0.0000  0.0000  0.0000  0.0000  0.0000  0.0000
  o =  0.5537  v =  0.0000  0.0000  1.0000  0.0000  0.0000  0.0000      0.0000  0.0000  0.0000  0.0000  0.0000  0.0000
  o =  0.5537  v =  0.0000  0.0000  0.0000  1.0000  0.0000  0.0000      0.0000  0.0000  0.0000  0.0000  0.0000  0.0000
  o =  0.5537  v =  0.0000  0.0000  0.0000  0.0000  1.0000  0.0000      0.0000  0.0000  0.0000  0.0000  0.0000  0.0000
  o =  0.5537  v =  0.0000  0.0000  0.0000  0.0000  0.0000  1.0000      0.0000  0.0000  0.0000  0.0000  0.0000  0.0000
 
atom =  27  type =  3  l = 1  LDA+U# 1
 
 onsite density matrix
 
spin component  1
 
  0.5537  0.0000  0.0000
  0.0000  0.5537  0.0000
  0.0000  0.0000  0.5537
 
spin component  2
 
  0.5537  0.0000  0.0000
  0.0000  0.5537  0.0000
  0.0000  0.0000  0.5537
 
 occupancies and eigenvectors
 
  o =  0.5537  v =  1.0000  0.0000  0.0000  0.0000  0.0000  0.0000      0.0000  0.0000  0.0000  0.0000  0.0000  0.0000
  o =  0.5537  v =  0.0000  1.0000  0.0000  0.0000  0.0000  0.0000      0.0000  0.0000  0.0000  0.0000  0.0000  0.0000
  o =  0.5537  v =  0.0000  0.0000  1.0000  0.0000  0.0000  0.0000      0.0000  0.0000  0.0000  0.0000  0.0000  0.0000
  o =  0.5537  v =  0.0000  0.0000  0.0000  1.0000  0.0000  0.0000      0.0000  0.0000  0.0000  0.0000  0.0000  0.0000
  o =  0.5537  v =  0.0000  0.0000  0.0000  0.0000  1.0000  0.0000      0.0000  0.0000  0.0000  0.0000  0.0000  0.0000
  o =  0.5537  v =  0.0000  0.0000  0.0000  0.0000  0.0000  1.0000      0.0000  0.0000  0.0000  0.0000  0.0000  0.0000
 
atom =  28  type =  3  l = 1  LDA+U# 1
 
 onsite density matrix
 
spin component  1
 
  0.5537  0.0000  0.0000
  0.0000  0.5537  0.0000
  0.0000  0.0000  0.5537
 
spin component  2
 
  0.5537  0.0000  0.0000
  0.0000  0.5537  0.0000
  0.0000  0.0000  0.5537
 
 occupancies and eigenvectors
 
  o =  0.5537  v =  1.0000  0.0000  0.0000  0.0000  0.0000  0.0000      0.0000  0.0000  0.0000  0.0000  0.0000  0.0000
  o =  0.5537  v =  0.0000  1.0000  0.0000  0.0000  0.0000  0.0000      0.0000  0.0000  0.0000  0.0000  0.0000  0.0000
  o =  0.5537  v =  0.0000  0.0000  1.0000  0.0000  0.0000  0.0000      0.0000  0.0000  0.0000  0.0000  0.0000  0.0000
  o =  0.5537  v =  0.0000  0.0000  0.0000  1.0000  0.0000  0.0000      0.0000  0.0000  0.0000  0.0000  0.0000  0.0000
  o =  0.5537  v =  0.0000  0.0000  0.0000  0.0000  1.0000  0.0000      0.0000  0.0000  0.0000  0.0000  0.0000  0.0000
  o =  0.5537  v =  0.0000  0.0000  0.0000  0.0000  0.0000  1.0000      0.0000  0.0000  0.0000  0.0000  0.0000  0.0000
 
atom =  29  type =  3  l = 1  LDA+U# 1
 
 onsite density matrix
 
spin component  1
 
  0.5537  0.0000  0.0000
  0.0000  0.5537  0.0000
  0.0000  0.0000  0.5537
 
spin component  2
 
  0.5537  0.0000  0.0000
  0.0000  0.5537  0.0000
  0.0000  0.0000  0.5537
 
 occupancies and eigenvectors
 
  o =  0.5537  v =  1.0000  0.0000  0.0000  0.0000  0.0000  0.0000      0.0000  0.0000  0.0000  0.0000  0.0000  0.0000
  o =  0.5537  v =  0.0000  1.0000  0.0000  0.0000  0.0000  0.0000      0.0000  0.0000  0.0000  0.0000  0.0000  0.0000
  o =  0.5537  v =  0.0000  0.0000  1.0000  0.0000  0.0000  0.0000      0.0000  0.0000  0.0000  0.0000  0.0000  0.0000
  o =  0.5537  v =  0.0000  0.0000  0.0000  1.0000  0.0000  0.0000      0.0000  0.0000  0.0000  0.0000  0.0000  0.0000
  o =  0.5537  v =  0.0000  0.0000  0.0000  0.0000  1.0000  0.0000      0.0000  0.0000  0.0000  0.0000  0.0000  0.0000
  o =  0.5537  v =  0.0000  0.0000  0.0000  0.0000  0.0000  1.0000      0.0000  0.0000  0.0000  0.0000  0.0000  0.0000
 
atom =  30  type =  3  l = 1  LDA+U# 1
 
 onsite density matrix
 
spin component  1
 
  0.5537  0.0000  0.0000
  0.0000  0.5537  0.0000
  0.0000  0.0000  0.5537
 
spin component  2
 
  0.5537  0.0000  0.0000
  0.0000  0.5537  0.0000
  0.0000  0.0000  0.5537
 
 occupancies and eigenvectors
 
  o =  0.5537  v =  1.0000  0.0000  0.0000  0.0000  0.0000  0.0000      0.0000  0.0000  0.0000  0.0000  0.0000  0.0000
  o =  0.5537  v =  0.0000  1.0000  0.0000  0.0000  0.0000  0.0000      0.0000  0.0000  0.0000  0.0000  0.0000  0.0000
  o =  0.5537  v =  0.0000  0.0000  1.0000  0.0000  0.0000  0.0000      0.0000  0.0000  0.0000  0.0000  0.0000  0.0000
  o =  0.5537  v =  0.0000  0.0000  0.0000  1.0000  0.0000  0.0000      0.0000  0.0000  0.0000  0.0000  0.0000  0.0000
  o =  0.5537  v =  0.0000  0.0000  0.0000  0.0000  1.0000  0.0000      0.0000  0.0000  0.0000  0.0000  0.0000  0.0000
  o =  0.5537  v =  0.0000  0.0000  0.0000  0.0000  0.0000  1.0000      0.0000  0.0000  0.0000  0.0000  0.0000  0.0000
 
atom =  31  type =  3  l = 1  LDA+U# 1
 
 onsite density matrix
 
spin component  1
 
  0.5537  0.0000  0.0000
  0.0000  0.5537  0.0000
  0.0000  0.0000  0.5537
 
spin component  2
 
  0.5537  0.0000  0.0000
  0.0000  0.5537  0.0000
  0.0000  0.0000  0.5537
 
 occupancies and eigenvectors
 
  o =  0.5537  v =  1.0000  0.0000  0.0000  0.0000  0.0000  0.0000      0.0000  0.0000  0.0000  0.0000  0.0000  0.0000
  o =  0.5537  v =  0.0000  1.0000  0.0000  0.0000  0.0000  0.0000      0.0000  0.0000  0.0000  0.0000  0.0000  0.0000
  o =  0.5537  v =  0.0000  0.0000  1.0000  0.0000  0.0000  0.0000      0.0000  0.0000  0.0000  0.0000  0.0000  0.0000
[...]
  0.000   0.000   0.000   0.000   0.000   0.000   0.000   0.000   0.000   0.000   0.000   0.000   0.000   0.000   0.000   0.000
  0.000   0.000   0.000   0.000   0.000   0.000   0.000   0.000   0.000   0.000   0.000   0.000   0.000   0.000   0.000   0.000
  0.000   0.000   0.000   0.000   0.000   0.000   0.000   0.000   0.000   0.000   0.000   0.000   0.000   0.000   0.000   0.000
  0.000   0.000   0.000   0.000   0.000   0.000   0.000   0.000   0.000   0.000   0.000   0.000   0.000   0.000   0.000   0.000
  0.000   0.000   0.000   0.000   0.000   0.000   0.000   0.000   0.000   0.000   0.000   0.000   0.000   0.000   0.000   0.000
  0.000   0.000   0.000   0.000   0.000   0.000   0.000   0.000   0.000   0.000   0.000   0.000   0.000   0.000   0.000   0.000
  0.000   0.000   0.000   0.000   0.000   0.000   0.000   0.000   0.000   0.000   0.000   0.000   0.000   0.000   0.000   0.000
  0.000   0.000   0.000   0.000   0.000   0.000   0.000   0.000   0.000   0.000   0.000   0.000   0.000   0.000   0.000   0.000
  0.000   0.000   0.000   0.000   0.000   0.000   0.000   0.000   0.000   0.000   0.000   0.000   0.000   0.000   0.000   0.000
  0.000   0.000   0.000   0.000   0.000   0.000   0.000   0.000   0.000   0.000   0.000   0.000   0.000   0.000   0.000   0.000
  0.000   0.000   0.000   0.000   0.000   0.000   0.000   0.000   0.000   0.000   0.000   0.000   0.000   0.000   0.000   0.000
  0.000   0.000   0.000   0.000   0.000   0.000   0.000   0.000   0.000   0.000   0.000   0.000   0.000   0.000   0.000   0.000
  0.000   0.000   0.000   0.000   0.000   0.000   0.000   0.000   0.000   0.000   0.000   0.000   0.000   0.000   0.000   0.000
  0.000   0.000   0.000   0.000   0.000   0.000   0.000   0.000   0.000   0.000   0.000   0.000   0.000   0.000   0.000   0.000
  0.000   0.000   0.000   0.000   0.000   0.000   0.000   0.000   0.000   0.000   0.000   0.000   0.000   0.000   0.000   0.000


------------------------ aborting loop because EDIFF is reached ----------------------------------------




--------------------------------------------------------------------------------------------------------



  FREE ENERGIE OF THE ION-ELECTRON SYSTEM (eV)
  ---------------------------------------------------
  free  energy   TOTEN  =       454.047707 eV

  energy  without entropy=      454.047707  energy(sigma->0) =      454.047707
 
    CHARGE:  cpu time    0.63: real time    1.83
    FORLOC:  cpu time    0.02: real time    0.05
    FORNL :  cpu time    4.99: real time   10.36
    STRESS:  cpu time   15.79: real time   15.79
    FORCOR:  cpu time    0.18: real time    0.18
    FORHAR:  cpu time    0.04: real time    0.04
    MIXING:  cpu time    0.01: real time    0.01

  FORCE on cell =-STRESS in cart. coord.  units (eV):
  Direction    XX          YY          ZZ          XY          YZ          ZX
  --------------------------------------------------------------------------------------
  Alpha Z  2407.88001  2407.88001  2407.88001
  Ewald  -10173.07538-10173.07538-10173.07538     0.00000     0.00000     0.00000
  Hartree  3090.36999  3090.37037  3090.36998    -0.00011    -0.00026    -0.00038
  E(xc)   -2210.94673 -2210.94679 -2210.94672    -0.00002    -0.00003     0.00000
  Local    -970.07934  -970.08033  -970.07929    -0.00008    -0.00022     0.00041
  n-local    43.80739    43.80718    43.80739     0.00001    -0.00006     0.00003
  augment  2421.95602  2421.95632  2421.95621    -0.00001     0.00025    -0.00001
  Kinetic  5456.44419  5456.44465  5456.44420     0.00019     0.00053    -0.00001
  Fock        0.00000     0.00000     0.00000     0.00000     0.00000     0.00000
  -------------------------------------------------------------------------------------
  Total      66.35614    66.35603    66.35639    -0.00001     0.00021     0.00003
  in kB     168.82721   168.82693   168.82785    -0.00002     0.00054     0.00008
  external pressure =      168.83 kB  Pullay stress =        0.00 kB


 VOLUME and BASIS-vectors are now :
 -----------------------------------------------------------------------------
  energy-cutoff  :      300.00
  volume of cell :      629.72
      direct lattice vectors                 reciprocal lattice vectors
     8.571360519  0.000000000  0.000000000     0.116667593  0.000000000  0.000000000
     0.000000000  8.571360519  0.000000000     0.000000000  0.116667593  0.000000000
     0.000000000  0.000000000  8.571360519     0.000000000  0.000000000  0.116667593

  length of vectors
     8.571360519  8.571360519  8.571360519     0.116667593  0.116667593  0.116667593


 FORCES acting on ions
    electron-ion (+dipol)            ewald-force                    non-local-force                 convergence-correction
 -----------------------------------------------------------------------------------------------
   0.381E-04 0.368E-04 -.734E-04   0.295E-05 0.295E-05 0.295E-05   -.780E-04 -.638E-04 0.353E-04   0.498E-04 0.345E-04 0.251E-04
   0.107E-03 0.181E-03 0.136E-03   -.144E-03 -.144E-03 -.144E-03   0.445E-04 -.162E-04 0.591E-04   -.190E-04 -.201E-04 -.593E-04
   0.184E-03 0.249E-03 0.349E-04   -.975E-04 -.975E-04 0.295E-05   -.561E-04 -.843E-04 -.203E-04   -.192E-04 -.481E-04 -.994E-05
   0.107E-03 0.433E-04 0.556E-04   -.975E-04 0.295E-05 -.975E-04   -.628E-05 0.395E-05 -.212E-04   -.422E-05 -.492E-04 0.594E-04
   0.129E-03 -.866E-04 -.352E-04   -.144E-03 0.496E-04 0.496E-04   0.296E-04 0.170E-05 0.148E-04   -.240E-04 0.293E-04 -.332E-04
   0.476E-05 0.622E-04 0.183E-03   0.295E-05 -.975E-04 -.975E-04   -.133E-04 0.113E-04 -.102E-03   0.108E-04 0.190E-04 0.328E-04
   0.189E-05 0.390E-04 -.847E-04   0.496E-04 -.144E-03 0.496E-04   -.143E-04 0.717E-04 0.232E-04   -.341E-04 0.186E-04 0.605E-05
   -.137E-03 -.116E-03 0.139E-03   0.496E-04 0.496E-04 -.144E-03   0.681E-04 0.313E-04 -.132E-04   -.838E-06 0.226E-04 0.155E-04
   0.107E-03 0.152E-03 0.130E-04   -.727E-04 -.195E-03 0.318E-05   0.180E-04 -.245E-04 0.323E-05   -.498E-04 0.386E-04 -.140E-04
   0.106E-03 -.780E-05 0.168E-03   -.727E-04 0.318E-05 -.195E-03   0.670E-05 0.717E-05 -.257E-04   -.356E-04 -.111E-04 0.403E-04
   0.178E-03 0.848E-04 -.159E-04   -.195E-03 -.727E-04 0.318E-05   -.430E-05 0.732E-05 -.262E-04   0.212E-05 -.358E-04 0.210E-04
   -.482E-04 0.537E-04 0.240E-03   0.318E-05 -.727E-04 -.195E-03   -.166E-04 -.148E-04 -.136E-05   0.435E-04 0.798E-05 -.474E-04
   0.211E-03 -.142E-04 0.255E-04   -.195E-03 0.318E-05 -.727E-04   -.229E-05 -.250E-04 0.437E-06   -.121E-04 0.217E-04 0.389E-04
   -.771E-04 0.235E-03 0.671E-04   0.318E-05 -.195E-03 -.727E-04   -.567E-05 -.720E-05 -.318E-04   0.755E-04 -.391E-04 0.169E-04
   0.207E-03 0.271E-03 -.930E-04   -.235E-03 -.235E-03 0.123E-03   -.238E-05 -.630E-05 -.246E-04   0.492E-05 -.325E-04 0.503E-06
   0.245E-03 -.107E-03 0.229E-03   -.235E-03 0.123E-03 -.235E-03   -.119E-05 0.560E-05 -.485E-05   -.112E-04 -.169E-04 -.101E-04
   -.107E-03 0.227E-03 0.256E-03   0.123E-03 -.235E-03 -.235E-03   -.438E-05 -.311E-04 -.696E-05   0.161E-05 0.162E-04 -.381E-04
   0.281E-05 0.111E-04 -.164E-03   -.145E-04 -.145E-04 0.180E-03   -.270E-04 -.199E-04 0.231E-04   0.245E-04 0.475E-05 -.274E-04
   0.701E-04 0.789E-04 -.194E-03   -.578E-04 -.578E-04 0.148E-03   -.424E-05 0.891E-05 -.302E-05   -.929E-05 -.121E-04 0.412E-04
   0.102E-05 -.169E-03 0.962E-05   -.145E-04 0.180E-03 -.145E-04   -.556E-05 0.134E-04 -.223E-04   0.434E-05 -.225E-04 0.403E-05
   -.203E-03 0.144E-04 0.621E-04   0.180E-03 -.145E-04 -.145E-04   -.129E-04 0.622E-05 -.293E-04   0.286E-04 -.133E-04 -.271E-04
   0.963E-04 -.164E-03 0.540E-04   -.578E-04 0.148E-03 -.578E-04   -.173E-04 -.128E-04 0.124E-04   -.354E-05 0.310E-04 -.102E-04
   -.139E-03 0.643E-04 0.476E-04   0.148E-03 -.578E-04 -.578E-04   -.249E-05 -.124E-04 0.973E-05   -.597E-05 0.204E-04 0.343E-05
   -.131E-03 -.170E-03 -.141E-03   0.126E-03 0.126E-03 0.126E-03   -.216E-04 -.803E-05 0.848E-05   0.185E-04 0.361E-04 0.291E-05
   0.192E+02 0.192E+02 -.192E+02   -.270E+02 -.270E+02 0.270E+02   0.711E+01 0.711E+01 -.711E+01   0.906E-03 0.924E-03 -.969E-03
   0.192E+02 -.192E+02 0.192E+02   -.270E+02 0.270E+02 -.270E+02   0.711E+01 -.711E+01 0.711E+01   0.869E-03 -.954E-03 0.956E-03
   0.192E+02 -.192E+02 -.192E+02   -.270E+02 0.270E+02 0.270E+02   0.711E+01 -.711E+01 -.711E+01   0.831E-03 -.870E-03 -.918E-03
   -.192E+02 0.192E+02 0.192E+02   0.270E+02 -.270E+02 -.270E+02   -.711E+01 0.711E+01 0.711E+01   -.848E-03 0.878E-03 0.897E-03
   -.192E+02 0.192E+02 -.192E+02   0.270E+02 -.270E+02 0.270E+02   -.711E+01 0.711E+01 -.711E+01   -.871E-03 0.953E-03 -.952E-03
   -.192E+02 -.191E+02 0.192E+02   0.270E+02 0.270E+02 -.270E+02   -.711E+01 -.711E+01 0.711E+01   -.904E-03 -.957E-03 0.966E-03
   -.192E+02 -.192E+02 -.192E+02   0.270E+02 0.270E+02 0.270E+02   -.711E+01 -.711E+01 -.711E+01   -.921E-03 -.930E-03 -.906E-03
   -.192E+02 -.192E+02 -.192E+02   0.270E+02 0.270E+02 0.270E+02   -.711E+01 -.711E+01 -.711E+01   -.939E-03 -.949E-03 -.848E-03
   0.192E+02 0.191E+02 0.191E+02   -.270E+02 -.270E+02 -.270E+02   0.711E+01 0.711E+01 0.711E+01   0.907E-03 0.929E-03 0.845E-03
   -.192E+02 -.192E+02 -.192E+02   0.270E+02 0.270E+02 0.270E+02   -.711E+01 -.711E+01 -.711E+01   -.911E-03 -.904E-03 -.876E-03
   0.191E+02 0.191E+02 0.191E+02   -.270E+02 -.270E+02 -.270E+02   0.711E+01 0.711E+01 0.711E+01   0.924E-03 0.945E-03 0.887E-03
   0.191E+02 0.191E+02 0.192E+02   -.270E+02 -.270E+02 -.270E+02   0.711E+01 0.711E+01 0.711E+01   0.959E-03 0.918E-03 0.945E-03
   -.192E+02 -.192E+02 -.192E+02   0.270E+02 0.270E+02 0.270E+02   -.711E+01 -.711E+01 -.711E+01   -.917E-03 -.936E-03 -.943E-03
   0.192E+02 0.192E+02 0.192E+02   -.270E+02 -.270E+02 -.270E+02   0.711E+01 0.711E+01 0.711E+01   0.900E-03 0.916E-03 0.899E-03
   -.192E+02 0.192E+02 0.191E+02   0.270E+02 -.270E+02 -.270E+02   -.711E+01 0.711E+01 0.711E+01   -.983E-03 0.890E-03 0.893E-03
   0.192E+02 -.191E+02 0.192E+02   -.270E+02 0.270E+02 -.270E+02   0.711E+01 -.711E+01 0.711E+01   0.943E-03 -.979E-03 0.926E-03
   -.192E+02 0.191E+02 0.192E+02   0.270E+02 -.270E+02 -.270E+02   -.711E+01 0.711E+01 0.711E+01   -.975E-03 0.860E-03 0.933E-03
   0.192E+02 0.191E+02 -.192E+02   -.270E+02 -.270E+02 0.270E+02   0.711E+01 0.711E+01 -.711E+01   0.915E-03 0.939E-03 -.972E-03
   -.192E+02 0.192E+02 -.191E+02   0.270E+02 -.270E+02 0.270E+02   -.711E+01 0.711E+01 -.711E+01   -.863E-03 0.876E-03 -.913E-03
   -.192E+02 -.191E+02 0.191E+02   0.270E+02 0.270E+02 -.270E+02   -.711E+01 -.711E+01 0.711E+01   -.909E-03 -.909E-03 0.866E-03
   0.191E+02 -.192E+02 0.192E+02   -.270E+02 0.270E+02 -.270E+02   0.711E+01 -.711E+01 0.711E+01   0.873E-03 -.880E-03 0.890E-03
   0.191E+02 0.192E+02 -.192E+02   -.270E+02 -.270E+02 0.270E+02   0.711E+01 0.711E+01 -.711E+01   0.919E-03 0.916E-03 -.859E-03
   0.192E+02 -.192E+02 -.191E+02   -.270E+02 0.270E+02 0.270E+02   0.711E+01 -.711E+01 -.711E+01   0.984E-03 -.860E-03 -.963E-03
   -.191E+02 -.192E+02 0.191E+02   0.270E+02 0.270E+02 -.270E+02   -.711E+01 -.711E+01 0.711E+01   -.958E-03 -.924E-03 0.974E-03
   0.191E+02 -.192E+02 -.192E+02   -.270E+02 0.270E+02 0.270E+02   0.711E+01 -.711E+01 -.711E+01   0.102E-02 -.946E-03 -.895E-03
   -.191E+02 0.191E+02 -.192E+02   0.270E+02 -.270E+02 0.270E+02   -.711E+01 0.711E+01 -.711E+01   -.954E-03 0.989E-03 -.956E-03
   -.192E+02 0.191E+02 0.191E+02   0.270E+02 -.270E+02 -.270E+02   -.711E+01 0.711E+01 0.711E+01   -.953E-03 0.930E-03 0.950E-03
   0.191E+02 -.191E+02 0.191E+02   -.270E+02 0.270E+02 -.270E+02   0.711E+01 -.711E+01 0.711E+01   0.966E-03 -.973E-03 0.900E-03
   0.191E+02 0.191E+02 -.192E+02   -.270E+02 -.270E+02 0.270E+02   0.711E+01 0.711E+01 -.711E+01   0.941E-03 0.917E-03 -.954E-03
   0.192E+02 -.192E+02 -.192E+02   -.270E+02 0.270E+02 0.270E+02   0.711E+01 -.711E+01 -.711E+01   0.948E-03 -.899E-03 -.906E-03
   -.192E+02 0.192E+02 -.192E+02   0.270E+02 -.270E+02 0.270E+02   -.711E+01 0.711E+01 -.711E+01   -.944E-03 0.956E-03 -.878E-03
   -.192E+02 -.192E+02 0.192E+02   0.270E+02 0.270E+02 -.270E+02   -.711E+01 -.711E+01 0.711E+01   -.923E-03 -.882E-03 0.964E-03
 -----------------------------------------------------------------------------------------------
   0.105E-03 0.150E-03 0.202E-03   0.213E-13 -.263E-12 -.167E-12   -.133E-03 -.149E-03 -.228E-03   0.645E-04 -.138E-04 0.164E-04
 
 
 POSITION                                       TOTAL-FORCE (eV/Angst)
 -----------------------------------------------------------------------------------
      7.49994      7.49994      7.49994         0.000012      0.000011     -0.000010
      1.07142      1.07142      1.07142        -0.000013      0.000000     -0.000008
      3.21426      3.21426      7.49994         0.000010      0.000019      0.000008
      3.21426      7.49994      3.21426        -0.000002      0.000001     -0.000004
      1.07142      5.35710      5.35710        -0.000010     -0.000006     -0.000004
      7.49994      3.21426      3.21426         0.000005     -0.000005      0.000016
      5.35710      1.07142      5.35710         0.000002     -0.000015     -0.000006
      5.35710      5.35710      1.07142        -0.000021     -0.000012     -0.000002
      2.14284      0.00000      6.42852         0.000002     -0.000029      0.000006
      2.14284      6.42852      0.00000         0.000004     -0.000008     -0.000012
      0.00000      2.14284      6.42852        -0.000020     -0.000016     -0.000018
      6.42852      2.14284      0.00000        -0.000019     -0.000026     -0.000004
      0.00000      6.42852      2.14284         0.000001     -0.000014     -0.000008
      6.42852      0.00000      2.14284        -0.000005     -0.000006     -0.000020
      0.00000      0.00000      4.28568        -0.000026     -0.000003      0.000006
      0.00000      4.28568      0.00000        -0.000002      0.000005     -0.000021
      4.28568      0.00000      0.00000         0.000012     -0.000023     -0.000024
      6.42852      6.42852      4.28568        -0.000015     -0.000018      0.000012
      2.14284      2.14284      4.28568        -0.000002      0.000018     -0.000009
      6.42852      4.28568      6.42852        -0.000015      0.000002     -0.000023
      4.28568      6.42852      6.42852        -0.000007     -0.000007     -0.000009
      2.14284      4.28568      2.14284         0.000017      0.000002     -0.000001
      4.28568      2.14284      2.14284         0.000000      0.000015      0.000003
      4.28568      4.28568      4.28568        -0.000009     -0.000016     -0.000004
      0.07377      0.07377      6.35475        -0.710319     -0.710220      0.710212
      0.07377      6.35475      0.07377        -0.710163      0.710186     -0.710261
      2.21661      8.49759      8.49759        -0.710155      0.710172      0.710182
      6.35475      0.07377      0.07377         0.710164     -0.710180     -0.710158
      8.49759      2.21661      8.49759         0.710170     -0.710188      0.710269
      8.49759      8.49759      2.21661         0.710145      0.710152     -0.710166
      2.06907      2.06907      6.35475         0.710164      0.710259      0.710167
      2.06907      6.35475      2.06907         0.710222      0.710182      0.710138
      2.21661      6.50229      6.50229        -0.710194     -0.710230     -0.710125
      6.35475      2.06907      2.06907         0.710138      0.710137      0.710154
      6.50229      2.21661      6.50229        -0.710125     -0.710150     -0.710167
      6.50229      6.50229      2.21661        -0.710211     -0.710157     -0.710178
      6.35475      6.35475      6.35475         0.710174      0.710162      0.710186
      2.21661      2.21661      2.21661        -0.710136     -0.710171     -0.710142
      2.06907      0.07377      4.35945         0.710202     -0.710208     -0.710141
      0.07377      2.06907      4.35945        -0.710217      0.710178     -0.710218
      2.06907      4.35945      0.07377         0.710207     -0.710135     -0.710151
      0.07377      4.35945      2.06907        -0.710150     -0.710109      0.710172
      4.21191      6.50229      8.49759         0.710129     -0.710151      0.710145
      4.21191      8.49759      6.50229         0.710316      0.710171     -0.710133
      4.35945      2.06907      0.07377        -0.710136      0.710172     -0.710135
      4.35945      0.07377      2.06907        -0.710150     -0.710149      0.710123
      6.50229      4.21191      8.49759        -0.710191      0.710136      0.710160
      8.49759      4.21191      6.50229         0.710179      0.710191     -0.710160
      6.50229      8.49759      4.21191        -0.710216      0.710220      0.710168
      8.49759      6.50229      4.21191         0.710193     -0.710176      0.710231
      6.35475      4.35945      4.35945         0.710221     -0.710190     -0.710166
      4.35945      6.35475      4.35945        -0.710185      0.710155     -0.710147
      4.35945      4.35945      6.35475        -0.710147     -0.710127      0.710266
      2.21661      4.21191      4.21191        -0.710220      0.710206      0.710155
      4.21191      2.21661      4.21191         0.710232     -0.710139      0.710142
      4.21191      4.21191      2.21661         0.710158      0.710130     -0.710286
 -----------------------------------------------------------------------------------
    total drift:                                0.000036     -0.000013     -0.000010
 d Force = 0.0000000E+00[ 0.000E+00, 0.000E+00]  d Energy =-0.3698918E+03 0.370E+03
 d Force = 0.0000000E+00[ 0.000E+00, 0.000E+00]  d Ewald  = 0.0000000E+00 0.000E+00


--------------------------------------------------------------------------------------------------------


    POTLOK:  cpu time    0.39: real time    0.39


--------------------------------------------------------------------------------------------------------


 writing wavefunctions
     LOOP+:  cpu time  264.98: real time  466.16
    4ORBIT:  cpu time    0.00: real time    0.00

 ----------------------------------------------------------------------------- 
|                                                                             |
|           W    W    AA    RRRRR   N    N  II  N    N   GGGG   !!!           |
|           W    W   A  A   R    R  NN   N  II  NN   N  G    G  !!!           |
|           W    W  A    A  R    R  N N  N  II  N N  N  G       !!!           |
|           W WW W  AAAAAA  RRRRR   N  N N  II  N  N N  G  GGG   !            |
|           WW  WW  A    A  R   R   N   NN  II  N   NN  G    G                |
|           W    W  A    A  R    R  N    N  II  N    N   GGGG   !!!           |
|                                                                             |
|      The partial DOS and the PROCAR file are not evaluated for NPAR/=1      |
|      please rerun with NPAR=1                                               |
|                                                                             |
 ----------------------------------------------------------------------------- 


 total amount of memory used by VASP on root node 202906. kBytes
========================================================================

   base      :    60000. kBytes
   nonlr-proj:    41692. kBytes
   fftplans  :    19580. kBytes
   grid      :    45360. kBytes
   one-center:     1740. kBytes
   wavefun   :    34534. kBytes
 
  
  
 General timing and accounting informations for this job:
 ========================================================
  
                  Total CPU time used (sec):      600.796
                            User time (sec):      528.325
                          System time (sec):       72.471
                         Elapsed time (sec):      485.536
  
                   Maximum memory used (kb):           0.
                   Average memory used (kb):           0.
  
                          Minor page faults:        52296
                          Major page faults:         4742
                 Voluntary context switches:        12433
