 running on   16 nodes
 distr:  one band on    2 nodes,    8 groups
 vasp.5.2.2 15Apr09 complex 
 POSCAR found :  3 types and   56 ions
 LDA part: xc-table for Pade appr. of Perdew
 POSCAR, INCAR and KPOINTS ok, starting setup
 WARNING: small aliasing (wrap around) errors must be expected
 FFT: planning ...(           1 )
 reading WAVECAR
 WARNING: random wavefunctions but no delay for mixing, default for NELMDL
 entering main loop
       N       E                     dE             d eps       ncg     rms          rms(c)
DAV:   1     0.486718020342E+04    0.47830E+04   -0.14157E+05  4232   0.133E+03
DAV:   2     0.985918880834E+03   -0.38813E+04   -0.36798E+04  4224   0.449E+02
DAV:   3     0.441102571587E+03   -0.54482E+03   -0.50926E+03  4528   0.172E+02
DAV:   4     0.406988189266E+03   -0.34114E+02   -0.31577E+02  5208   0.421E+01
DAV:   5     0.405936743099E+03   -0.10514E+01   -0.10339E+01  5704   0.666E+00    0.635E+01
RMM:   6     0.434681069645E+03    0.28744E+02   -0.71812E+02  4299   0.572E+01    0.355E+01
RMM:   7     0.463239523900E+03    0.28558E+02   -0.42608E+01  4283   0.161E+01    0.130E+01
RMM:   8     0.455072529550E+03   -0.81670E+01   -0.59967E+00  4543   0.652E+00    0.679E+00
RMM:   9     0.454046672807E+03   -0.10259E+01   -0.36125E+00  4472   0.497E+00    0.129E+00
RMM:  10     0.454050933295E+03    0.42605E-02   -0.59508E-01  4660   0.163E+00    0.491E-01
RMM:  11     0.454049093461E+03   -0.18398E-02   -0.46855E-02  5149   0.342E-01    0.262E-01
RMM:  12     0.454048153887E+03   -0.93957E-03   -0.71910E-03  4925   0.232E-01    0.963E-02
RMM:  13     0.454047795461E+03   -0.35843E-03   -0.98593E-04  5194   0.565E-02    0.349E-02
RMM:  14     0.454047756097E+03   -0.39363E-04   -0.21949E-04  4535   0.345E-02    0.245E-02
RMM:  15     0.454047711410E+03   -0.44687E-04   -0.10024E-04  4346   0.189E-02    0.126E-02
RMM:  16     0.454047706739E+03   -0.46711E-05   -0.15938E-05  3203   0.111E-02
   1 F= 0.45404771E+03 E0= 0.45404771E+03  d E =-.203421E-13  mag=     0.0000
 writing wavefunctions

 ----------------------------------------------------------------------------- 
|                                                                             |
|           W    W    AA    RRRRR   N    N  II  N    N   GGGG   !!!           |
|           W    W   A  A   R    R  NN   N  II  NN   N  G    G  !!!           |
|           W    W  A    A  R    R  N N  N  II  N N  N  G       !!!           |
|           W WW W  AAAAAA  RRRRR   N  N N  II  N  N N  G  GGG   !            |
|           WW  WW  A    A  R   R   N   NN  II  N   NN  G    G                |
|           W    W  A    A  R    R  N    N  II  N    N   GGGG   !!!           |
|                                                                             |
|      The partial DOS and the PROCAR file are not evaluated for NPAR/=1      |
|      please rerun with NPAR=1                                               |
|                                                                             |
 ----------------------------------------------------------------------------- 

