 running on   16 nodes
 distr:  one band on    2 nodes,    8 groups
 vasp.5.2.2 15Apr09 complex 
 POSCAR found :  3 types and   56 ions
 LDA part: xc-table for Pade appr. of Perdew
 POSCAR, INCAR and KPOINTS ok, starting setup
 WARNING: small aliasing (wrap around) errors must be expected
 FFT: planning ...(           3 )
 reading WAVECAR
 WARNING: random wavefunctions but no delay for mixing, default for NELMDL
 entering main loop
       N       E                     dE             d eps       ncg     rms          rms(c)
DAV:   1     0.450025287365E+04    0.45003E+04   -0.14276E+05  4232   0.132E+03
DAV:   2     0.620674558683E+03   -0.38796E+04   -0.36813E+04  4224   0.436E+02
DAV:   3     0.856287028208E+02   -0.53505E+03   -0.49889E+03  4400   0.171E+02
DAV:   4     0.591216019513E+02   -0.26507E+02   -0.25851E+02  4760   0.407E+01
DAV:   5     0.585525167908E+02   -0.56909E+00   -0.56547E+00  4712   0.539E+00    0.454E+01
RMM:   6     0.770332262880E+02    0.18481E+02   -0.25821E+02  4279   0.349E+01    0.214E+01
RMM:   7     0.834353935986E+02    0.64022E+01   -0.16520E+01  4351   0.946E+00    0.101E+01
RMM:   8     0.808535610152E+02   -0.25818E+01   -0.15217E+00  4543   0.355E+00    0.553E+00
RMM:   9     0.801273761230E+02   -0.72618E+00   -0.16029E+00  4469   0.327E+00    0.140E+00
RMM:  10     0.801141438767E+02   -0.13232E-01   -0.73912E-02  4663   0.632E-01    0.629E-01
RMM:  11     0.801126069865E+02   -0.15369E-02   -0.12543E-02  4578   0.259E-01    0.393E-01
RMM:  12     0.801110671624E+02   -0.15398E-02   -0.57376E-03  4684   0.176E-01    0.158E-01
RMM:  13     0.801108619621E+02   -0.20520E-03   -0.10416E-03  4748   0.718E-02    0.803E-02
RMM:  14     0.801107789258E+02   -0.83036E-04   -0.21330E-04  4638   0.303E-02    0.398E-02
RMM:  15     0.801107065753E+02   -0.72350E-04   -0.78673E-05  4051   0.199E-02    0.274E-02
RMM:  16     0.801106851228E+02   -0.21453E-04   -0.34523E-05  3232   0.143E-02    0.152E-02
RMM:  17     0.801106780819E+02   -0.70409E-05   -0.10239E-05  2545   0.701E-03
   1 F= 0.80110678E+02 E0= 0.80137277E+02  d E =0.801107E+02  mag=     1.0000
 curvature:   0.00 expect dE= 0.000E+00 dE for cont linesearch  0.000E+00
 trial: gam= 0.00000 g(F)=  0.560E-01 g(S)=  0.000E+00 ort = 0.000E+00 (trialstep = 0.100E+01)
 search vector abs. value=  0.560E-01
 bond charge predicted
       N       E                     dE             d eps       ncg     rms          rms(c)
DAV:   1     0.801162820729E+02    0.55970E-02   -0.80593E+00  4352   0.673E+00    0.435E-01
RMM:   2     0.800745193111E+02   -0.41763E-01   -0.45117E-01  4609   0.141E+00    0.256E-01
RMM:   3     0.800827824602E+02    0.82631E-02   -0.84013E-03  4768   0.262E-01    0.172E-01
RMM:   4     0.800837619757E+02    0.97952E-03   -0.26155E-03  4613   0.105E-01    0.559E-02
RMM:   5     0.800838126224E+02    0.50647E-04   -0.49107E-04  4632   0.466E-02    0.147E-02
RMM:   6     0.800838175580E+02    0.49356E-05   -0.20807E-05  3009   0.114E-02
   2 F= 0.80083818E+02 E0= 0.80110608E+02  d E =-.268605E-01  mag=     1.0000
 trial-energy change:   -0.026861  1 .order   -0.027008   -0.055958    0.001942
 step:   0.9659(harm=  0.9665)  dis= 0.00522  next Energy=    80.083784 (dE=-0.269E-01)
 bond charge predicted
       N       E                     dE             d eps       ncg     rms          rms(c)
DAV:   1     0.800838197504E+02    0.71280E-05   -0.91181E-03  4296   0.226E-01    0.147E-02
RMM:   2     0.800837720425E+02   -0.47708E-04   -0.49064E-04  4413   0.469E-02    0.841E-03
RMM:   3     0.800837817387E+02    0.96962E-05   -0.80811E-06  2457   0.880E-03
   3 F= 0.80083782E+02 E0= 0.80110567E+02  d E =-.268963E-01  mag=     1.0000
 curvature:  -0.48 expect dE=-0.252E-05 dE for cont linesearch -0.803E-08
 trial: gam= 0.00064 g(F)=  0.521E-05 g(S)=  0.000E+00 ort =-0.305E-04 (trialstep = 0.993E+00)
 search vector abs. value=  0.520E-05
 reached required accuracy - stopping structural energy minimisation
 writing wavefunctions
