 running on   16 nodes
 distr:  one band on    2 nodes,    8 groups
 vasp.5.2.2 15Apr09 complex 
 POSCAR found :  3 types and   56 ions
 LDA part: xc-table for Pade appr. of Perdew
 POSCAR, INCAR and KPOINTS ok, starting setup
 WARNING: small aliasing (wrap around) errors must be expected
 FFT: planning ...(           1 )
 reading WAVECAR
 WARNING: random wavefunctions but no delay for mixing, default for NELMDL
 entering main loop
       N       E                     dE             d eps       ncg     rms          rms(c)
DAV:   1     0.484408602700E+04    0.47640E+04   -0.14119E+05  4232   0.133E+03
DAV:   2     0.975690131779E+03   -0.38684E+04   -0.36654E+04  4224   0.448E+02
DAV:   3     0.432842246471E+03   -0.54285E+03   -0.50785E+03  4528   0.172E+02
DAV:   4     0.398913915856E+03   -0.33928E+02   -0.31370E+02  5216   0.420E+01
DAV:   5     0.397902588518E+03   -0.10113E+01   -0.99475E+00  5688   0.658E+00    0.638E+01
RMM:   6     0.429193369960E+03    0.31291E+02   -0.72227E+02  4299   0.573E+01    0.358E+01
RMM:   7     0.457845058360E+03    0.28652E+02   -0.43282E+01  4282   0.162E+01    0.128E+01
RMM:   8     0.449655832113E+03   -0.81892E+01   -0.57362E+00  4546   0.658E+00    0.628E+00
RMM:   9     0.449059485706E+03   -0.59635E+00   -0.32649E+00  4472   0.461E+00    0.133E+00
RMM:  10     0.449066426582E+03    0.69409E-02   -0.38568E-01  4803   0.127E+00    0.667E-01
RMM:  11     0.449061010833E+03   -0.54157E-02   -0.84683E-02  5089   0.482E-01    0.398E-01
RMM:  12     0.449060849540E+03   -0.16129E-03   -0.92856E-03  4959   0.212E-01    0.336E-01
RMM:  13     0.449060079819E+03   -0.76972E-03   -0.28170E-03  4962   0.114E-01    0.244E-01
RMM:  14     0.449058326117E+03   -0.17537E-02   -0.18103E-03  4907   0.934E-02    0.205E-01
RMM:  15     0.449056720616E+03   -0.16055E-02   -0.17353E-03  4763   0.920E-02    0.136E-01
RMM:  16     0.449055970252E+03   -0.75036E-03   -0.70471E-04  4716   0.636E-02    0.111E-01
RMM:  17     0.449055427990E+03   -0.54226E-03   -0.46176E-04  4542   0.477E-02    0.117E-01
RMM:  18     0.449055194933E+03   -0.23306E-03   -0.18212E-04  4307   0.280E-02    0.135E-01
RMM:  19     0.449055485561E+03    0.29063E-03   -0.26143E-04  3994   0.343E-02    0.991E-02
RMM:  20     0.449055618016E+03    0.13245E-03   -0.65905E-04  4301   0.516E-02    0.755E-02
RMM:  21     0.449055557258E+03   -0.60757E-04   -0.41212E-04  4343   0.403E-02    0.489E-02
RMM:  22     0.449055308252E+03   -0.24901E-03   -0.24130E-04  4236   0.379E-02    0.287E-02
RMM:  23     0.449055129831E+03   -0.17842E-03   -0.12919E-04  4188   0.289E-02    0.260E-02
RMM:  24     0.449054992777E+03   -0.13705E-03   -0.77451E-05  3956   0.227E-02    0.255E-02
RMM:  25     0.449054953655E+03   -0.39121E-04   -0.12851E-05  2843   0.915E-03    0.251E-02
RMM:  26     0.449055042400E+03    0.88745E-04   -0.14848E-05  2656   0.137E-02    0.251E-02
RMM:  27     0.449055107775E+03    0.65375E-04   -0.15510E-05  2629   0.963E-03    0.252E-02
RMM:  28     0.449055507220E+03    0.39944E-03   -0.35308E-04  4100   0.509E-02    0.277E-02
RMM:  29     0.449055701415E+03    0.19420E-03   -0.21669E-04  4112   0.394E-02    0.261E-02
RMM:  30     0.449055682822E+03   -0.18593E-04   -0.23009E-05  3082   0.109E-02    0.235E-02
RMM:  31     0.449055430568E+03   -0.25225E-03   -0.20022E-04  3983   0.424E-02    0.295E-02
RMM:  32     0.449055031892E+03   -0.39868E-03   -0.59867E-04  4255   0.684E-02    0.314E-02
RMM:  33     0.449054768989E+03   -0.26290E-03   -0.23366E-04  4264   0.401E-02    0.294E-02
RMM:  34     0.449054396091E+03   -0.37290E-03   -0.42814E-04  4245   0.559E-02    0.319E-02
RMM:  35     0.449054639513E+03    0.24342E-03   -0.13484E-04  3863   0.351E-02    0.297E-02
RMM:  36     0.449054490424E+03   -0.14909E-03   -0.37873E-05  3146   0.180E-02    0.292E-02
RMM:  37     0.449054490335E+03   -0.88461E-07   -0.20636E-06  2148   0.419E-03
   1 F= 0.44905449E+03 E0= 0.44907775E+03  d E =-.465188E-01  mag=     1.0000
 writing wavefunctions
