 running on   16 nodes
 distr:  one band on    2 nodes,    8 groups
 vasp.5.2.2 15Apr09 complex 
 POSCAR found :  3 types and   56 ions
 LDA part: xc-table for Pade appr. of Perdew
 POSCAR, INCAR and KPOINTS ok, starting setup
 WARNING: small aliasing (wrap around) errors must be expected
 FFT: planning ...(           3 )
 reading WAVECAR
 WARNING: random wavefunctions but no delay for mixing, default for NELMDL
 entering main loop
       N       E                     dE             d eps       ncg     rms          rms(c)
DAV:   1     0.445134608383E+04    0.44513E+04   -0.14301E+05  4232   0.132E+03
DAV:   2     0.572616802087E+03   -0.38787E+04   -0.36820E+04  4224   0.434E+02
DAV:   3     0.393529201152E+02   -0.53326E+03   -0.49674E+03  4400   0.171E+02
DAV:   4     0.134049162410E+02   -0.25948E+02   -0.25360E+02  4720   0.406E+01
DAV:   5     0.128787419224E+02   -0.52617E+00   -0.52319E+00  4712   0.519E+00    0.438E+01
RMM:   6     0.287542641790E+02    0.15876E+02   -0.23274E+02  4281   0.333E+01    0.211E+01
RMM:   7     0.351053733197E+02    0.63511E+01   -0.16332E+01  4355   0.930E+00    0.998E+00
RMM:   8     0.327048825872E+02   -0.24005E+01   -0.14299E+00  4553   0.348E+00    0.525E+00
RMM:   9     0.320551321224E+02   -0.64975E+00   -0.14423E+00  4472   0.310E+00    0.170E+00
RMM:  10     0.320454757954E+02   -0.96563E-02   -0.82515E-02  4604   0.675E-01    0.561E-01
RMM:  11     0.320424955319E+02   -0.29803E-02   -0.10479E-02  4715   0.236E-01    0.344E-01
RMM:  12     0.320412314478E+02   -0.12641E-02   -0.55165E-03  4548   0.168E-01    0.113E-01
RMM:  13     0.320410340013E+02   -0.19745E-03   -0.66544E-04  4834   0.559E-02    0.590E-02
RMM:  14     0.320409652392E+02   -0.68762E-04   -0.12109E-04  4536   0.234E-02    0.349E-02
RMM:  15     0.320409140555E+02   -0.51184E-04   -0.57957E-05  3906   0.173E-02    0.248E-02
RMM:  16     0.320409016108E+02   -0.12445E-04   -0.23417E-05  2846   0.118E-02    0.131E-02
RMM:  17     0.320408978413E+02   -0.37695E-05   -0.67426E-06  2467   0.533E-03
   1 F= 0.32040898E+02 E0= 0.32067306E+02  d E =0.320409E+02  mag=     1.0000
 curvature:   0.00 expect dE= 0.000E+00 dE for cont linesearch  0.000E+00
 trial: gam= 0.00000 g(F)=  0.828E-02 g(S)=  0.000E+00 ort = 0.000E+00 (trialstep = 0.100E+01)
 search vector abs. value=  0.828E-02
 bond charge predicted
       N       E                     dE             d eps       ncg     rms          rms(c)
DAV:   1     0.320416762828E+02    0.77467E-03   -0.11892E+00  4352   0.259E+00    0.166E-01
RMM:   2     0.320355209051E+02   -0.61554E-02   -0.66395E-02  4618   0.541E-01    0.988E-02
RMM:   3     0.320367603769E+02    0.12395E-02   -0.11986E-03  4655   0.968E-02    0.658E-02
RMM:   4     0.320369058726E+02    0.14550E-03   -0.34396E-04  4608   0.376E-02    0.258E-02
RMM:   5     0.320369178392E+02    0.11967E-04   -0.82545E-05  4104   0.184E-02    0.735E-03
RMM:   6     0.320369184925E+02    0.65325E-06   -0.36561E-06  2447   0.503E-03
   2 F= 0.32036918E+02 E0= 0.32063427E+02  d E =-.397935E-02  mag=     1.0000
 trial-energy change:   -0.003979  1 .order   -0.004036   -0.008275    0.000203
 step:   0.9750(harm=  0.9760)  dis= 0.00205  next Energy=    32.036916 (dE=-0.398E-02)
 bond charge predicted
       N       E                     dE             d eps       ncg     rms          rms(c)
DAV:   1     0.320369186712E+02    0.83193E-06   -0.72328E-04  4280   0.638E-02    0.443E-03
RMM:   2     0.320369146854E+02   -0.39857E-05   -0.35712E-05  2945   0.131E-02
   3 F= 0.32036915E+02 E0= 0.32063421E+02  d E =-.398316E-02  mag=     1.0000
 curvature:  -0.49 expect dE=-0.340E-06 dE for cont linesearch -0.682E-07
 trial: gam=-0.00403 g(F)=  0.697E-06 g(S)=  0.000E+00 ort = 0.340E-04 (trialstep = 0.995E+00)
 search vector abs. value=  0.557E-06
 reached required accuracy - stopping structural energy minimisation
 writing wavefunctions
