       N       E                     dE             d eps       ncg     rms          rms(c)
DAV:   1     0.445119729353E+04    0.44512E+04   -0.14301E+05  4232   0.132E+03
DAV:   2     0.572558717861E+03   -0.38786E+04   -0.36819E+04  4224   0.434E+02
DAV:   3     0.392001397185E+02   -0.53336E+03   -0.49679E+03  4408   0.171E+02
DAV:   4     0.133888672618E+02   -0.25811E+02   -0.25250E+02  4712   0.405E+01
DAV:   5     0.128664029305E+02   -0.52246E+00   -0.51922E+00  4704   0.513E+00    0.437E+01
RMM:   6     0.289819922492E+02    0.16116E+02   -0.23190E+02  4279   0.331E+01    0.205E+01
RMM:   7     0.350526288379E+02    0.60706E+01   -0.15635E+01  4356   0.916E+00    0.986E+00
RMM:   8     0.322652128317E+02   -0.27874E+01   -0.21493E+00  4480   0.444E+00    0.264E+00
RMM:   9     0.320483952592E+02   -0.21682E+00   -0.44467E-01  4481   0.171E+00    0.645E-01
RMM:  10     0.320442863039E+02   -0.41090E-02   -0.20955E-02  4899   0.337E-01    0.306E-01
RMM:  11     0.320413217568E+02   -0.29645E-02   -0.57926E-03  4546   0.185E-01    0.901E-02
RMM:  12     0.320409555710E+02   -0.36619E-03   -0.50325E-04  4882   0.528E-02    0.370E-02
RMM:  13     0.320409223942E+02   -0.33177E-04   -0.90021E-05  4439   0.190E-02    0.208E-02
RMM:  14     0.320408958593E+02   -0.26535E-04   -0.41696E-05  3526   0.140E-02    0.937E-03
RMM:  15     0.320408931412E+02   -0.27181E-05   -0.52516E-06  2523   0.555E-03
   1 F= 0.32040893E+02 E0= 0.32067306E+02  d E =-.528258E-01  mag=     1.0000
