 vasp.5.2.2 15Apr09 complex 
 executed on           LinuxPGF90 date 2010.02.22  21:50:59
 running on   16 nodes
 distr:  one band on    2 nodes,    8 groups


--------------------------------------------------------------------------------------------------------


 INCAR:
 POTCAR:   PAW_PBE Zn 06Sep2000                   
 POTCAR:   PAW_PBE Rh 06Sep2000                   
 POTCAR:   PAW_PBE O_s 07Sep2000                  
 POTCAR:   PAW_PBE Zn 06Sep2000                   
   VRHFIN =Zn: d10 p2                                                           
   LEXCH  = PE                                                                  
   EATOM  =  1749.0928 eV,  128.5547 Ry                                         
                                                                                
   TITEL  = PAW_PBE Zn 06Sep2000                                                
   LULTRA =        F    use ultrasoft PP ?                                      
   IUNSCR =        1    unscreen: 0-lin 1-nonlin 2-no                           
   RPACOR =    2.000    partial core radius                                     
   POMASS =   65.390; ZVAL   =   12.000    mass and valenz                      
   RCORE  =    2.300    outmost cutoff radius                                   
   RWIGS  =    2.400; RWIGS  =    1.270    wigner-seitz radius (au A)           
   ENMAX  =  276.727; ENMIN  =  207.545 eV                                      
   RCLOC  =    1.828    cutoff for local pot                                    
   LCOR   =        T    correct aug charges                                     
   LPAW   =        T    paw PP                                                  
   EAUG   =  575.892                                                            
   DEXC   =    -.003                                                            
   RMAX   =    2.772    core radius for proj-oper                               
   RAUG   =    1.300    factor for augmentation sphere                          
   RDEP   =    2.324    radius for radial grids                                 
   QCUT   =   -4.510; QGAM   =    9.020    optimization parameters              
                                                                                
   Description                                                                  
     l     E      TYP  RCUT    TYP  RCUT                                        
     2   .000     23  2.300                                                     
     2   .000     23  2.300                                                     
     0   .000     23  2.300                                                     
     0   .000     23  2.300                                                     
     1  -.200     23  2.300                                                     
     1   .000     23  2.300                                                     
     3   .000      7   .000                                                     
  local pseudopotential read in
  partial core-charges read in
  atomic valenz-charges read in
  non local Contribution for L=           2  read in
    real space projection operators read in
  non local Contribution for L=           2  read in
    real space projection operators read in
  non local Contribution for L=           0  read in
    real space projection operators read in
  non local Contribution for L=           0  read in
    real space projection operators read in
  non local Contribution for L=           1  read in
    real space projection operators read in
  non local Contribution for L=           1  read in
    real space projection operators read in
    PAW grid and wavefunctions read in
 
   number of l-projection  operators is LMAX  =           6
   number of lm-projection operators is LMMAX =          18
 
 POTCAR:   PAW_PBE Rh 06Sep2000                   
   VRHFIN =Rh: s1 d8                                                            
   LEXCH  = PE                                                                  
   EATOM  =   616.5493 eV,   45.3151 Ry                                         
                                                                                
   TITEL  = PAW_PBE Rh 06Sep2000                                                
   LULTRA =        F    use ultrasoft PP ?                                      
   IUNSCR =        1    unscreen: 0-lin 1-nonlin 2-no                           
   RPACOR =    2.170    partial core radius                                     
   POMASS =  102.906; ZVAL   =    9.000    mass and valenz                      
   RCORE  =    2.500    outmost cutoff radius                                   
   RWIGS  =    2.650; RWIGS  =    1.402    wigner-seitz radius (au A)           
   ENMAX  =  229.000; ENMIN  =  171.750 eV                                      
   RCLOC  =    1.827    cutoff for local pot                                    
   LCOR   =        T    correct aug charges                                     
   LPAW   =        T    paw PP                                                  
   EAUG   =  374.513                                                            
   DEXC   =    -.066                                                            
   RMAX   =    3.047    core radius for proj-oper                               
   RAUG   =    1.300    factor for augmentation sphere                          
   RDEP   =    2.536    radius for radial grids                                 
   QCUT   =   -4.103; QGAM   =    8.205    optimization parameters              
                                                                                
   Description                                                                  
     l     E      TYP  RCUT    TYP  RCUT                                        
     2   .000     23  2.500                                                     
     2   .000     23  2.500                                                     
     0   .000     23  2.400                                                     
     0   .000     23  2.400                                                     
     1  -.200     23  2.500                                                     
     1   .000     23  2.500                                                     
     3   .000      7   .000                                                     
  local pseudopotential read in
  partial core-charges read in
  atomic valenz-charges read in
  non local Contribution for L=           2  read in
    real space projection operators read in
  non local Contribution for L=           2  read in
    real space projection operators read in
  non local Contribution for L=           0  read in
    real space projection operators read in
  non local Contribution for L=           0  read in
    real space projection operators read in
  non local Contribution for L=           1  read in
    real space projection operators read in
  non local Contribution for L=           1  read in
    real space projection operators read in
    PAW grid and wavefunctions read in
 
   number of l-projection  operators is LMAX  =           6
   number of lm-projection operators is LMMAX =          18
 
 POTCAR:   PAW_PBE O_s 07Sep2000                  
   VRHFIN =O: s2p4                                                              
   LEXCH  = PE                                                                  
   EATOM  =   432.2909 eV,   31.7725 Ry                                         
                                                                                
   TITEL  = PAW_PBE O_s 07Sep2000                                               
   LULTRA =        F    use ultrasoft PP ?                                      
   IUNSCR =        0    unscreen: 0-lin 1-nonlin 2-no                           
   RPACOR =     .000    partial core radius                                     
   POMASS =   16.000; ZVAL   =    6.000    mass and valenz                      
   RCORE  =    1.850    outmost cutoff radius                                   
   RWIGS  =    1.700; RWIGS  =     .900    wigner-seitz radius (au A)           
   ENMAX  =  282.841; ENMIN  =  212.131 eV                                      
   RCLOC  =     .804    cutoff for local pot                                    
   LCOR   =        T    correct aug charges                                     
   LPAW   =        T    paw PP                                                  
   EAUG   =  412.352                                                            
   DEXC   =     .000                                                            
   RMAX   =    2.742    core radius for proj-oper                               
   RAUG   =    1.300    factor for augmentation sphere                          
   RDEP   =    1.878    radius for radial grids                                 
   QCUT   =   -4.559; QGAM   =    9.119    optimization parameters              
                                                                                
   Description                                                                  
     l     E      TYP  RCUT    TYP  RCUT                                        
     0   .000     23  1.500                                                     
     0   .000     23  1.500                                                     
     1   .000     23  1.850                                                     
     1   .000     23  1.850                                                     
     2   .000      7   .000                                                     
  local pseudopotential read in
  atomic valenz-charges read in
  non local Contribution for L=           0  read in
    real space projection operators read in
  non local Contribution for L=           0  read in
    real space projection operators read in
  non local Contribution for L=           1  read in
    real space projection operators read in
  non local Contribution for L=           1  read in
    real space projection operators read in
    PAW grid and wavefunctions read in
 
   number of l-projection  operators is LMAX  =           4
   number of lm-projection operators is LMMAX =           8
 
 Optimization of the real space projectors (new method)

 maximal supplied QI-value         = 16.25
 optimisation between [QCUT,QGAM] = [  8.78, 17.71] = [ 21.57, 87.87] Ry 
 Optimized for a Real-space Cutoff    1.74 Angstroem

   l    n(q)    QCUT    max X(q) W(low)/X(q) W(high)/X(q)  e(spline) 
   2      8     8.776     5.523    0.81E-05    0.23E-04    0.55E-07
   2      8     8.776     9.671    0.51E-04    0.14E-03    0.40E-06
   0      9     8.776    11.246    0.21E-04    0.74E-06    0.61E-08
   0      9     8.776    34.692    0.87E-04    0.57E-04    0.11E-06
   1      9     8.776     4.877    0.67E-05    0.26E-04    0.26E-07
   1      9     8.776     6.599    0.19E-04    0.96E-04    0.11E-06
 Optimization of the real space projectors (new method)

 maximal supplied QI-value         = 15.12
 optimisation between [QCUT,QGAM] = [  8.77, 17.69] = [ 21.53, 87.61] Ry 
 Optimized for a Real-space Cutoff    2.02 Angstroem

   l    n(q)    QCUT    max X(q) W(low)/X(q) W(high)/X(q)  e(spline) 
   2     10     8.768     3.971    0.66E-05    0.95E-05    0.83E-07
   2     10     8.768    27.544    0.58E-04    0.75E-04    0.79E-06
   0     11     8.768    20.781    0.22E-04    0.23E-05    0.17E-07
   0     11     8.768    69.103    0.33E-04    0.22E-04    0.13E-06
   1     10     8.768     7.864    0.32E-05    0.55E-06    0.35E-07
   1     10     8.768    10.811    0.20E-04    0.59E-05    0.13E-06
 Optimization of the real space projectors (new method)

 maximal supplied QI-value         = 20.41
 optimisation between [QCUT,QGAM] = [  8.78, 17.55] = [ 21.57, 86.27] Ry 
 Optimized for a Real-space Cutoff    1.69 Angstroem

   l    n(q)    QCUT    max X(q) W(low)/X(q) W(high)/X(q)  e(spline) 
   0      9     8.776     3.225    0.85E-05    0.67E-05    0.13E-06
   0      9     8.776    31.433    0.68E-04    0.75E-04    0.26E-06
   1      8     8.776     3.918    0.17E-04    0.16E-04    0.28E-06
   1      8     8.776    28.387    0.97E-04    0.12E-03    0.42E-06
 PAW_PBE Zn 06Sep2000                   :
 energy of atom  1       EATOM=-1749.0928
 kinetic energy error for atom=    0.0293 (will be added to EATOM!!)
 PAW_PBE Rh 06Sep2000                   :
 energy of atom  2       EATOM= -616.5493
 kinetic energy error for atom=    0.0317 (will be added to EATOM!!)
 PAW_PBE O_s 07Sep2000                  :
 energy of atom  3       EATOM= -432.2909
 kinetic energy error for atom=    0.0425 (will be added to EATOM!!)
 
 
 POSCAR: POSCAR created by SUPERPOSCAR           
  positions in direct lattice
  No initial velocities read in
 exchange correlation table for  LEXCH =        8
   RHO(1)=    0.500       N(1)  =     2000
   RHO(2)=  100.500       N(2)  =     4000
 


--------------------------------------------------------------------------------------------------------


 ion  position               nearest neighbor table
   1  0.875  0.875  0.875-  25 1.98  26 1.98  28 1.98  37 1.98
   2  0.125  0.125  0.125-  27 1.98  29 1.98  30 1.98  38 1.98
   3  0.375  0.375  0.875-  53 1.98  45 1.98  41 1.98  31 1.98
   4  0.375  0.875  0.375-  52 1.98  46 1.98  39 1.98  32 1.98
   5  0.125  0.625  0.625-  33 1.98  48 1.98  50 1.98  54 1.98
   6  0.875  0.375  0.375-  51 1.98  42 1.98  40 1.98  34 1.98
   7  0.625  0.125  0.625-  35 1.98  44 1.98  49 1.98  55 1.98
   8  0.625  0.625  0.125-  36 1.98  43 1.98  47 1.98  56 1.98
   9  0.250  0.000  0.750-  44 2.07  27 2.07  31 2.07  25 2.07  33 2.07  39 2.07  10 3.03  11 3.03
                            15 3.03  17 3.03  19 3.03  21 3.03
  10  0.250  0.750  0.000-  43 2.07  27 2.07  32 2.07  26 2.07  33 2.07  41 2.07   9 3.03  13 3.03
                            16 3.03  17 3.03  21 3.03  22 3.03
  11  0.000  0.250  0.750-  48 2.07  29 2.07  31 2.07  25 2.07  35 2.07  40 2.07   9 3.03  12 3.03
                            15 3.03  16 3.03  19 3.03  20 3.03
  12  0.750  0.250  0.000-  47 2.07  29 2.07  34 2.07  28 2.07  35 2.07  45 2.07  11 3.03  14 3.03
                            16 3.03  17 3.03  20 3.03  23 3.03
  13  0.000  0.750  0.250-  50 2.07  30 2.07  32 2.07  26 2.07  36 2.07  42 2.07  10 3.03  14 3.03
                            15 3.03  16 3.03  18 3.03  22 3.03
  14  0.750  0.000  0.250-  49 2.07  30 2.07  34 2.07  28 2.07  36 2.07  46 2.07  12 3.03  13 3.03
                            15 3.03  17 3.03  18 3.03  23 3.03
  15  0.000  0.000  0.500-  39 2.07  40 2.07  25 2.07  30 2.07  49 2.07  50 2.07   9 3.03  11 3.03
                            13 3.03  14 3.03  18 3.03  19 3.03
  16  0.000  0.500  0.000-  41 2.07  42 2.07  26 2.07  29 2.07  47 2.07  48 2.07  10 3.03  11 3.03
                            12 3.03  13 3.03  20 3.03  22 3.03
  17  0.500  0.000  0.000-  45 2.07  46 2.07  27 2.07  28 2.07  43 2.07  44 2.07   9 3.03  10 3.03
                            12 3.03  14 3.03  21 3.03  23 3.03
  18  0.750  0.750  0.500-  36 2.07  49 2.07  50 2.07  37 2.07  51 2.07  52 2.07  13 3.03  14 3.03
                            15 3.03  20 3.03  21 3.03  24 3.03
  19  0.250  0.250  0.500-  39 2.07  40 2.07  31 2.07  38 2.07  54 2.07  55 2.07   9 3.03  11 3.03
                            15 3.03  22 3.03  23 3.03  24 3.03
  20  0.750  0.500  0.750-  35 2.07  47 2.07  48 2.07  37 2.07  51 2.07  53 2.07  11 3.03  12 3.03
                            16 3.03  18 3.03  21 3.03  24 3.03
  21  0.500  0.750  0.750-  33 2.07  43 2.07  44 2.07  37 2.07  52 2.07  53 2.07   9 3.03  10 3.03
                            17 3.03  18 3.03  20 3.03  24 3.03
  22  0.250  0.500  0.250-  41 2.07  42 2.07  32 2.07  38 2.07  54 2.07  56 2.07  10 3.03  13 3.03
                            16 3.03  19 3.03  23 3.03  24 3.03
  23  0.500  0.250  0.250-  45 2.07  46 2.07  34 2.07  38 2.07  55 2.07  56 2.07  12 3.03  14 3.03
                            17 3.03  19 3.03  22 3.03  24 3.03
  24  0.500  0.500  0.500-  51 2.07  52 2.07  53 2.07  54 2.07  55 2.07  56 2.07  18 3.03  19 3.03
                            20 3.03  21 3.03  22 3.03  23 3.03
  25  0.009  0.009  0.741-   1 1.98   9 2.07  11 2.07  15 2.07
  26  0.009  0.741  0.009-   1 1.98  10 2.07  13 2.07  16 2.07
  27  0.259  0.991  0.991-   2 1.98   9 2.07  10 2.07  17 2.07
  28  0.741  0.009  0.009-   1 1.98  12 2.07  14 2.07  17 2.07
  29  0.991  0.259  0.991-   2 1.98  11 2.07  12 2.07  16 2.07
  30  0.991  0.991  0.259-   2 1.98  13 2.07  14 2.07  15 2.07
  31  0.241  0.241  0.741-   3 1.98   9 2.07  11 2.07  19 2.07
  32  0.241  0.741  0.241-   4 1.98  10 2.07  13 2.07  22 2.07
  33  0.259  0.759  0.759-   5 1.98  21 2.07  10 2.07   9 2.07
  34  0.741  0.241  0.241-   6 1.98  12 2.07  14 2.07  23 2.07
  35  0.759  0.259  0.759-   7 1.98  20 2.07  12 2.07  11 2.07
  36  0.759  0.759  0.259-   8 1.98  18 2.07  14 2.07  13 2.07
  37  0.741  0.741  0.741-   1 1.98  18 2.07  20 2.07  21 2.07
  38  0.259  0.259  0.259-   2 1.98  19 2.07  22 2.07  23 2.07
  39  0.241  0.009  0.509-   4 1.98  15 2.07  19 2.07   9 2.07
  40  0.009  0.241  0.509-   6 1.98  15 2.07  19 2.07  11 2.07
  41  0.241  0.509  0.009-   3 1.98  16 2.07  22 2.07  10 2.07
  42  0.009  0.509  0.241-   6 1.98  16 2.07  22 2.07  13 2.07
  43  0.491  0.759  0.991-   8 1.98  10 2.07  21 2.07  17 2.07
  44  0.491  0.991  0.759-   7 1.98   9 2.07  21 2.07  17 2.07
  45  0.509  0.241  0.009-   3 1.98  17 2.07  23 2.07  12 2.07
  46  0.509  0.009  0.241-   4 1.98  17 2.07  23 2.07  14 2.07
  47  0.759  0.491  0.991-   8 1.98  12 2.07  20 2.07  16 2.07
  48  0.991  0.491  0.759-   5 1.98  11 2.07  20 2.07  16 2.07
  49  0.759  0.991  0.491-   7 1.98  14 2.07  18 2.07  15 2.07
  50  0.991  0.759  0.491-   5 1.98  13 2.07  18 2.07  15 2.07
  51  0.741  0.509  0.509-   6 1.98  24 2.07  20 2.07  18 2.07
  52  0.509  0.741  0.509-   4 1.98  24 2.07  21 2.07  18 2.07
  53  0.509  0.509  0.741-   3 1.98  24 2.07  21 2.07  20 2.07
  54  0.259  0.491  0.491-   5 1.98  19 2.07  22 2.07  24 2.07
  55  0.491  0.259  0.491-   7 1.98  19 2.07  23 2.07  24 2.07
  56  0.491  0.491  0.259-   8 1.98  22 2.07  23 2.07  24 2.07
 

IMPORTANT INFORMATION: All symmetrisations will be switched off!
NOSYMM: (Re-)initialisation of all symmetry stuff for point group C_1.

 
 
 KPOINTS: k-point                                 

Automatic generation of k-mesh.
 
 Subroutine IBZKPT returns following result:
 ===========================================
 
 Found      4 irreducible k-points:
 
 Following reciprocal coordinates:
            Coordinates               Weight
  0.250000  0.250000  0.250000      2.000000
 -0.250000  0.250000  0.250000      2.000000
  0.250000 -0.250000  0.250000      2.000000
 -0.250000 -0.250000  0.250000      2.000000
 
 Following cartesian coordinates:
            Coordinates               Weight
  0.247627  0.247627  0.247627      2.000000
 -0.247627  0.247627  0.247627      2.000000
  0.247627 -0.247627  0.247627      2.000000
 -0.247627 -0.247627  0.247627      2.000000
 


--------------------------------------------------------------------------------------------------------




 Dimension of arrays:
   k-points           NKPTS =      4   k-points in BZ     NKDIM =      4   number of bands    NBANDS=    264
   number of dos      NEDOS =   3001   number of ions     NIONS =     56
   non local maximal  LDIM  =      6   non local SUM 2l+1 LMDIM =     18
   total plane-waves  NPLWV = 110592
   max r-space proj   IRMAX =   6107   max aug-charges    IRDMAX=  80042
   dimension x,y,z NGX =    48 NGY =   48 NGZ =   48
   dimension x,y,z NGXF=    96 NGYF=   96 NGZF=   96
   support grid    NGXF=   192 NGYF=  192 NGZF=  192
   ions per type =               8  16  32
 NGX,Y,Z   is equivalent  to a cutoff of   9.31,  9.31,  9.31 a.u.
 NGXF,Y,Z  is equivalent  to a cutoff of  18.62, 18.62, 18.62 a.u.


 I would recommend the setting:
   dimension x,y,z NGX =    48 NGY =   48 NGZ =   48
 SYSTEM =  unknown system                          
 POSCAR =  POSCAR created by SUPERPOSCAR           

 Startparameter for this run:
   NWRITE =      2    write-flag & timer
   PREC   = accura    medium, high low
   ISTART =      0    job   : 0-new  1-cont  2-samecut
   ICHARG =      2    charge: 1-file 2-atom 10-const
   ISPIN  =      2    spin polarized calculation?
   LNONCOLLINEAR =      F non collinear calculations
   LSORBIT =      F    spin-orbit coupling
   INIWAV =      1    electr: 0-lowe 1-rand  2-diag
   LASPH  =      F    aspherical Exc in radial PAW
   METAGGA=      F    non-selfconsistent MetaGGA calc.

 Electronic Relaxation 1
   ENCUT  =  300.0 eV  22.05 Ry    4.70 a.u.  12.11 12.11 12.11*2*pi/ulx,y,z
   ENINI  =  300.0     initial cutoff
   ENAUG  =  575.9 eV  augmentation charge cutoff
   NELM   =     60;   NELMIN=  2; NELMDL=  0     # of ELM steps 
   EDIFF  = 0.1E-04   stopping-criterion for ELM
   LREAL  =      T    real-space projection
   LCOMPAT=      F    compatible to vasp.4.4
   LREAL_COMPAT= F    compatible to vasp.4.5.1-3
   GGA_COMPAT  = T    GGA compatible to vasp.4.4-vasp.4.6
   LMAXPAW     = -100 max onsite density
   LMAXMIX     =    4 max onsite mixed and CHGCAR
   VOSKOWN=      0    Vosko Wilk Nusair interpolation
   ROPT   =   -0.00010  -0.00010  -0.00010
 Ionic relaxation
   EDIFFG = 0.1E-03   stopping-criterion for IOM
   NSW    =      0    number of steps for IOM
   NBLOCK =      1;   KBLOCK =      1    inner block; outer block 
   IBRION =     -1    ionic relax: 0-MD 1-quasi-New 2-CG
   NFREE  =      0    steps in history (QN), initial steepest desc. (CG)
   ISIF   =      2    stress and relaxation
   IWAVPR =     10    prediction:  0-non 1-charg 2-wave 3-comb
   ISYM   =      0    0-nonsym 1-usesym 2-fastsym
   LCORR  =      T    Harris-Foulkes like correction to forces

   POTIM  = 0.5000    time-step for ionic-motion
   TEIN   =    0.0    initial temperature
   TEBEG  =    0.0;   TEEND  =   0.0 temperature during run
   SMASS  =  -3.00    Nose mass-parameter (am)
   estimated Nose-frequenzy (Omega)   =  0.10E-29 period in steps =****** mass=  -0.168E-26a.u.
   NPACO  =    256;   APACO  = 16.0  distance and # of slots for P.C.
   PSTRESS=    0.0 pullay stress

  Mass of Ions in am
   POMASS =  65.39102.91 16.00
  Ionic Valenz
   ZVAL   =  12.00  9.00  6.00
  Atomic Wigner-Seitz radii
   RWIGS  =   1.25  1.16  0.73
   NELECT =     431.0000    total number of electrons
   NUPDOWN=       1.0000    fix difference up-down

 DOS related values:
   EMIN   = -10.00;   EMAX   = 10.00  energy-range for DOS
   EFERMI =   0.00
   ISMEAR =     0;   SIGMA  =   0.05  broadening in eV -4-tet -1-fermi 0-gaus

 Electronic relaxation 2 (details)
   IALGO  =     68    algorithm
   LDIAG  =      T    sub-space diagonalisation
   IMIX   =      4    mixing-type and parameters
     AMIX     =   0.40;   BMIX     =  1.00
     AMIX_MAG =   1.60;   BMIX_MAG =  1.00
     AMIN     =   0.10
     WC   =   100.;   INIMIX=   1;  MIXPRE=   1

 Intra band minimization:
   WEIMIN = 0.0000     energy-eigenvalue tresh-hold
   EBREAK =  0.97E-08  absolut break condition
   DEPER  =   0.30     relativ break condition  

   TIME   =   0.40     timestep for ELM

  volume/ion in A,a.u.               =      11.25        75.89
  Fermi-wavevector in a.u.,A,eV,Ry     =   1.442727  2.726359 28.319999  2.081461
  Thomas-Fermi vector in A             =   2.561215
 
 Write flags
   LWAVE  =      T    write WAVECAR
   LCHARG =      T    write CHGCAR
   LVTOT  =      F    write LOCPOT, local potential
   LELF   =      F    write electronic localiz. function (ELF)
   LORBIT =     11    0 simple, 1 ext, 2 COOP (PROOUT)


 Dipole corrections
   LMONO  =      F    monopole corrections only (constant potential shift)
   LDIPOL =      F    correct potential (dipole corrections)
   IDIPOL =      0    1-x, 2-y, 3-z, 4-all directions 
   EPSILON=  1.0000000 bulk dielectric constant

 LDA+U is selected, type is set to LDAUTYPE =  1
   angular momentum for each species, LDAU#  1 :   L =      -1      2      1
   U (eV)           for each species, LDAU#  1 :   U =    0.00   0.42   1.25
   J (eV)           for each species, LDAU#  1 :   J =    0.00   0.00   0.00
   nlep             for each species, LDAU#  1 :   O =       1      2      2
   angular momentum for each species, LDAU#  2 :   L =      -1      2      1
   U (eV)           for each species, LDAU#  2 :   U =    0.00   0.17   6.49
   J (eV)           for each species, LDAU#  2 :   J =    0.00   0.00   0.00
   nlep             for each species, LDAU#  2 :   O =       1      1      1
   angular momentum for each species, LDAU#  3 :   L =       2      2     -1
   U (eV)           for each species, LDAU#  3 :   U =    6.00   3.00   0.00
   J (eV)           for each species, LDAU#  3 :   J =    0.00   1.00   0.00
   nlep             for each species, LDAU#  3 :   O =       1      1      1
   angular momentum for each species, LDAU#  4 :   L =      -1     -1     -1
   U (eV)           for each species, LDAU#  4 :   U =    0.00   0.00   0.00
   J (eV)           for each species, LDAU#  4 :   J =    0.00   0.00   0.00
   nlep             for each species, LDAU#  4 :   O =       1      1      1
 Exchange correlation treatment:
   GGA     =    --    GGA type
   LEXCH   =     8    internal setting for exchange type
   VOSKOWN=      0    Vosko Wilk Nusair interpolation
   LHFCALC =     F    Hartree Fock is set to
   LHFONE  =     F    Hartree Fock one center treatment
   AEXX    =    0.0000 exact exchange contribution

 Linear response parameters
   LEPSILON=     F    determine dielectric tensor
   LRPA    =     F    only Hartree local field effects (RPA)
   LNABLA  =     F    use nabla operator in PAW spheres
   LVEL    =     F    velocity operator in full k-point grid
   LINTERFAST=   F  fast interpolation
   KINTER  =     0    interpolate to denser k-point grid
   CSHIFT  =0.1000    complex shift for real part using Kramers Kronig
   OMEGAMAX=  -1.0    maximum frequency

 Orbital magnetization related:
   ORBITALMAG=     F  switch on orbital magnetization
   LCHIMAG   =     F  perturbation theory with respect to B field



--------------------------------------------------------------------------------------------------------


 Static calculation
 charge density and potential will be updated during run
 spin polarized calculation
 RMM-DIIS sequential band-by-band and
  variant of blocked Davidson during initial phase
 perform sub-space diagonalisation
    before iterative eigenvector-optimisation
 modified Broyden-mixing scheme, WC =      100.0
 initial mixing is a Kerker type mixing with AMIX =  0.4000 and BMIX =      1.0000
 Hartree-type preconditioning will be used
 using additional bands           48
 real space projection scheme for non local part
 use partial core corrections
 calculate Harris-corrections to forces 
   (improved forces if not selfconsistent)
 use gradient corrections 
 use of overlap-Matrix (Vanderbilt PP)
 Gauss-broadening in eV      SIGMA  =   0.05


--------------------------------------------------------------------------------------------------------


  energy-cutoff  :      300.00
  volume of cell :      629.72
      direct lattice vectors                 reciprocal lattice vectors
     8.571360519  0.000000000  0.000000000     0.116667593  0.000000000  0.000000000
     0.000000000  8.571360519  0.000000000     0.000000000  0.116667593  0.000000000
     0.000000000  0.000000000  8.571360519     0.000000000  0.000000000  0.116667593

  length of vectors
     8.571360519  8.571360519  8.571360519     0.116667593  0.116667593  0.116667593


 
 k-points in units of 2pi/SCALE and weight: k-point                                 
   0.24762697  0.24762697  0.24762697       0.250
  -0.24762697  0.24762697  0.24762697       0.250
   0.24762697 -0.24762697  0.24762697       0.250
  -0.24762697 -0.24762697  0.24762697       0.250
 
 k-points in reciprocal lattice and weights: k-point                                 
   0.25000000  0.25000000  0.25000000       0.250
  -0.25000000  0.25000000  0.25000000       0.250
   0.25000000 -0.25000000  0.25000000       0.250
  -0.25000000 -0.25000000  0.25000000       0.250
 
 position of ions in fractional coordinates (direct lattice) 
   0.87500000  0.87500000  0.87500000
   0.12500000  0.12500000  0.12500000
   0.37500000  0.37500000  0.87500000
   0.37500000  0.87500000  0.37500000
   0.12500000  0.62500000  0.62500000
   0.87500000  0.37500000  0.37500000
   0.62500000  0.12500000  0.62500000
   0.62500000  0.62500000  0.12500000
   0.25000000  0.00000000  0.75000000
   0.25000000  0.75000000  0.00000000
   0.00000000  0.25000000  0.75000000
   0.75000000  0.25000000  0.00000000
   0.00000000  0.75000000  0.25000000
   0.75000000  0.00000000  0.25000000
   0.00000000  0.00000000  0.50000000
   0.00000000  0.50000000  0.00000000
   0.50000000  0.00000000  0.00000000
   0.75000000  0.75000000  0.50000000
   0.25000000  0.25000000  0.50000000
   0.75000000  0.50000000  0.75000000
   0.50000000  0.75000000  0.75000000
   0.25000000  0.50000000  0.25000000
   0.50000000  0.25000000  0.25000000
   0.50000000  0.50000000  0.50000000
   0.00860710  0.00860710  0.74139290
   0.00860710  0.74139290  0.00860710
   0.25860710  0.99139290  0.99139290
   0.74139290  0.00860710  0.00860710
   0.99139290  0.25860710  0.99139290
   0.99139290  0.99139290  0.25860710
   0.24139290  0.24139290  0.74139290
   0.24139290  0.74139290  0.24139290
   0.25860710  0.75860700  0.75860700
   0.74139290  0.24139290  0.24139290
   0.75860700  0.25860710  0.75860700
   0.75860700  0.75860700  0.25860710
   0.74139290  0.74139290  0.74139290
   0.25860710  0.25860710  0.25860710
   0.24139290  0.00860710  0.50860700
   0.00860710  0.24139290  0.50860700
   0.24139290  0.50860700  0.00860710
   0.00860710  0.50860700  0.24139290
   0.49139290  0.75860700  0.99139290
   0.49139290  0.99139290  0.75860700
   0.50860700  0.24139290  0.00860710
   0.50860700  0.00860710  0.24139290
   0.75860700  0.49139290  0.99139290
   0.99139290  0.49139290  0.75860700
   0.75860700  0.99139290  0.49139290
   0.99139290  0.75860700  0.49139290
   0.74139290  0.50860700  0.50860700
   0.50860700  0.74139290  0.50860700
   0.50860700  0.50860700  0.74139290
   0.25860710  0.49139290  0.49139290
   0.49139290  0.25860710  0.49139290
   0.49139290  0.49139290  0.25860710
 
 position of ions in cartesian coordinates  (Angst):
   7.49994045  7.49994045  7.49994045
   1.07142006  1.07142006  1.07142006
   3.21426019  3.21426019  7.49994045
   3.21426019  7.49994045  3.21426019
   1.07142006  5.35710032  5.35710032
   7.49994045  3.21426019  3.21426019
   5.35710032  1.07142006  5.35710032
   5.35710032  5.35710032  1.07142006
   2.14284013  0.00000000  6.42852039
   2.14284013  6.42852039  0.00000000
   0.00000000  2.14284013  6.42852039
   6.42852039  2.14284013  0.00000000
   0.00000000  6.42852039  2.14284013
   6.42852039  0.00000000  2.14284013
   0.00000000  0.00000000  4.28568026
   0.00000000  4.28568026  0.00000000
   4.28568026  0.00000000  0.00000000
   6.42852039  6.42852039  4.28568026
   2.14284013  2.14284013  4.28568026
   6.42852039  4.28568026  6.42852039
   4.28568026  6.42852039  6.42852039
   2.14284013  4.28568026  2.14284013
   4.28568026  2.14284013  2.14284013
   4.28568026  4.28568026  4.28568026
   0.07377456  0.07377456  6.35474583
   0.07377456  6.35474583  0.07377456
   2.21661469  8.49758596  8.49758596
   6.35474583  0.07377456  0.07377456
   8.49758596  2.21661469  8.49758596
   8.49758596  8.49758596  2.21661469
   2.06906557  2.06906557  6.35474583
   2.06906557  6.35474583  2.06906557
   2.21661469  6.50229409  6.50229409
   6.35474583  2.06906557  2.06906557
   6.50229409  2.21661469  6.50229409
   6.50229409  6.50229409  2.21661469
   6.35474583  6.35474583  6.35474583
   2.21661469  2.21661469  2.21661469
   2.06906557  0.07377456  4.35945396
   0.07377456  2.06906557  4.35945396
   2.06906557  4.35945396  0.07377456
   0.07377456  4.35945396  2.06906557
   4.21190570  6.50229409  8.49758596
   4.21190570  8.49758596  6.50229409
   4.35945396  2.06906557  0.07377456
   4.35945396  0.07377456  2.06906557
   6.50229409  4.21190570  8.49758596
   8.49758596  4.21190570  6.50229409
   6.50229409  8.49758596  4.21190570
   8.49758596  6.50229409  4.21190570
   6.35474583  4.35945396  4.35945396
   4.35945396  6.35474583  4.35945396
   4.35945396  4.35945396  6.35474583
   2.21661469  4.21190570  4.21190570
   4.21190570  2.21661469  4.21190570
   4.21190570  4.21190570  2.21661469
 


--------------------------------------------------------------------------------------------------------


 k-point  1 :  0.25000.25000.2500  plane waves:    7451
 k-point  2 :  -.25000.25000.2500  plane waves:    7451
 k-point  3 :  0.2500-.25000.2500  plane waves:    7451
 k-point  4 :  -.2500-.25000.2500  plane waves:    7451

 maximum and minimum number of plane-waves per node :    3739   3712

 maximum number of plane-waves:    7451
 maximal index in each direction: 
   IXMAX= 12   IYMAX= 12   IZMAX= 11
   IXMIN=-12   IYMIN=-12   IZMIN=-12

 WARNING: aliasing errors must be expected set NGX to  50 to avoid them
 WARNING: aliasing errors must be expected set NGY to  50 to avoid them
 NGZ is ok and might be reduce to  48
 aliasing errors are usually negligible using standard VASP settings
 and one can safely disregard these warnings

 real space projection operators:
  total allocation   :  24408.62 KBytes
  max/ min on nodes  :  12244.38  12164.25


 parallel 3D FFT for wavefunctions:
    minimum data exchange during FFTs selected (reduces bandwidth)
 parallel 3D FFT for charge:
    minimum data exchange during FFTs selected (reduces bandwidth)


 total amount of memory used by VASP on root node 101453. kBytes
========================================================================

   base      :    30000. kBytes
   nonlr-proj:    20846. kBytes
   fftplans  :     9790. kBytes
   grid      :    22680. kBytes
   one-center:      870. kBytes
   wavefun   :    17267. kBytes
 
 Broyden mixing: mesh for mixing (old mesh)
   NGX = 25   NGY = 25   NGZ = 25
  (NGX  = 96   NGY  = 96   NGZ  = 96)
  gives a total of  15625 points

 initial charge density was supplied:
 charge density of overlapping atoms calculated
 number of electron  432.0000000 magnetization    1.0000000
 keeping initial charge density in first step


--------------------------------------------------------------------------------------------------------


 Maximum index for non-local projection operator         2971
 Maximum index for augmentation-charges         4987 (set IRDMAX)


--------------------------------------------------------------------------------------------------------


 First call to EWALD:  gamma=   0.207
 Maximum number of real-space cells 3x 3x 3
 Maximum number of reciprocal cells 3x 3x 3

    FEWALD:  cpu time    0.02: real time    0.02
   RESPFUN:  cpu time    0.00: real time    0.00


----------------------------------------- Iteration    1(   1)  ---------------------------------------


    POTLOK:  cpu time    0.31: real time    0.56
 
atom =   9  type =  2  l = 2  LDA+U# 1
 
 onsite density matrix
 
spin component  1
 
  0.7122  0.0000  0.0000  0.0000  0.0000
  0.0000  0.7122  0.0000  0.0000  0.0000
  0.0000  0.0000  0.7122  0.0000  0.0000
  0.0000  0.0000  0.0000  0.7122  0.0000
  0.0000  0.0000  0.0000  0.0000  0.7122
 
spin component  2
 
  0.7094  0.0000  0.0000  0.0000  0.0000
  0.0000  0.7094  0.0000  0.0000  0.0000
  0.0000  0.0000  0.7094  0.0000  0.0000
  0.0000  0.0000  0.0000  0.7094  0.0000
  0.0000  0.0000  0.0000  0.0000  0.7094
 
 occupancies and eigenvectors
 
  o =  0.7094  v =  0.0000  0.0000  0.0000  0.0000  0.0000  1.0000  0.0000  0.0000  0.0000  0.0000      0.0000  0.0000  0.0000  0.0000  0.0000  0.0000  0.0000  0.0000  0.0000  0.0000
  o =  0.7094  v =  0.0000  0.0000  0.0000  0.0000  0.0000  0.0000  1.0000  0.0000  0.0000  0.0000      0.0000  0.0000  0.0000  0.0000  0.0000  0.0000  0.0000  0.0000  0.0000  0.0000
  o =  0.7094  v =  0.0000  0.0000  0.0000  0.0000  0.0000  0.0000  0.0000  0.0000  1.0000  0.0000      0.0000  0.0000  0.0000  0.0000  0.0000  0.0000  0.0000  0.0000  0.0000  0.0000
  o =  0.7094  v =  0.0000  0.0000  0.0000  0.0000  0.0000  0.0000  0.0000  0.0000  0.0000  1.0000      0.0000  0.0000  0.0000  0.0000  0.0000  0.0000  0.0000  0.0000  0.0000  0.0000
  o =  0.7094  v =  0.0000  0.0000  0.0000  0.0000  0.0000  0.0000  0.0000  1.0000  0.0000  0.0000      0.0000  0.0000  0.0000  0.0000  0.0000  0.0000  0.0000  0.0000  0.0000  0.0000
  o =  0.7122  v =  1.0000  0.0000  0.0000  0.0000  0.0000  0.0000  0.0000  0.0000  0.0000  0.0000      0.0000  0.0000  0.0000  0.0000  0.0000  0.0000  0.0000  0.0000  0.0000  0.0000
  o =  0.7122  v =  0.0000  1.0000  0.0000  0.0000  0.0000  0.0000  0.0000  0.0000  0.0000  0.0000      0.0000  0.0000  0.0000  0.0000  0.0000  0.0000  0.0000  0.0000  0.0000  0.0000
  o =  0.7122  v =  0.0000  0.0000  0.0000  0.0000  1.0000  0.0000  0.0000  0.0000  0.0000  0.0000      0.0000  0.0000  0.0000  0.0000  0.0000  0.0000  0.0000  0.0000  0.0000  0.0000
  o =  0.7122  v =  0.0000  0.0000  0.0000  1.0000  0.0000  0.0000  0.0000  0.0000  0.0000  0.0000      0.0000  0.0000  0.0000  0.0000  0.0000  0.0000  0.0000  0.0000  0.0000  0.0000
  o =  0.7122  v =  0.0000  0.0000  1.0000  0.0000  0.0000  0.0000  0.0000  0.0000  0.0000  0.0000      0.0000  0.0000  0.0000  0.0000  0.0000  0.0000  0.0000  0.0000  0.0000  0.0000
 
atom =  10  type =  2  l = 2  LDA+U# 1
 
 onsite density matrix
 
spin component  1
 
  0.7122  0.0000  0.0000  0.0000  0.0000
  0.0000  0.7122  0.0000  0.0000  0.0000
  0.0000  0.0000  0.7122  0.0000  0.0000
  0.0000  0.0000  0.0000  0.7122  0.0000
  0.0000  0.0000  0.0000  0.0000  0.7122
 
spin component  2
 
  0.7094  0.0000  0.0000  0.0000  0.0000
  0.0000  0.7094  0.0000  0.0000  0.0000
  0.0000  0.0000  0.7094  0.0000  0.0000
  0.0000  0.0000  0.0000  0.7094  0.0000
  0.0000  0.0000  0.0000  0.0000  0.7094
 
 occupancies and eigenvectors
 
  o =  0.7094  v =  0.0000  0.0000  0.0000  0.0000  0.0000  1.0000  0.0000  0.0000  0.0000  0.0000      0.0000  0.0000  0.0000  0.0000  0.0000  0.0000  0.0000  0.0000  0.0000  0.0000
  o =  0.7094  v =  0.0000  0.0000  0.0000  0.0000  0.0000  0.0000  1.0000  0.0000  0.0000  0.0000      0.0000  0.0000  0.0000  0.0000  0.0000  0.0000  0.0000  0.0000  0.0000  0.0000
  o =  0.7094  v =  0.0000  0.0000  0.0000  0.0000  0.0000  0.0000  0.0000  0.0000  1.0000  0.0000      0.0000  0.0000  0.0000  0.0000  0.0000  0.0000  0.0000  0.0000  0.0000  0.0000
  o =  0.7094  v =  0.0000  0.0000  0.0000  0.0000  0.0000  0.0000  0.0000  0.0000  0.0000  1.0000      0.0000  0.0000  0.0000  0.0000  0.0000  0.0000  0.0000  0.0000  0.0000  0.0000
  o =  0.7094  v =  0.0000  0.0000  0.0000  0.0000  0.0000  0.0000  0.0000  1.0000  0.0000  0.0000      0.0000  0.0000  0.0000  0.0000  0.0000  0.0000  0.0000  0.0000  0.0000  0.0000
  o =  0.7122  v =  1.0000  0.0000  0.0000  0.0000  0.0000  0.0000  0.0000  0.0000  0.0000  0.0000      0.0000  0.0000  0.0000  0.0000  0.0000  0.0000  0.0000  0.0000  0.0000  0.0000
  o =  0.7122  v =  0.0000  1.0000  0.0000  0.0000  0.0000  0.0000  0.0000  0.0000  0.0000  0.0000      0.0000  0.0000  0.0000  0.0000  0.0000  0.0000  0.0000  0.0000  0.0000  0.0000
  o =  0.7122  v =  0.0000  0.0000  0.0000  0.0000  1.0000  0.0000  0.0000  0.0000  0.0000  0.0000      0.0000  0.0000  0.0000  0.0000  0.0000  0.0000  0.0000  0.0000  0.0000  0.0000
  o =  0.7122  v =  0.0000  0.0000  0.0000  1.0000  0.0000  0.0000  0.0000  0.0000  0.0000  0.0000      0.0000  0.0000  0.0000  0.0000  0.0000  0.0000  0.0000  0.0000  0.0000  0.0000
  o =  0.7122  v =  0.0000  0.0000  1.0000  0.0000  0.0000  0.0000  0.0000  0.0000  0.0000  0.0000      0.0000  0.0000  0.0000  0.0000  0.0000  0.0000  0.0000  0.0000  0.0000  0.0000
 
atom =  11  type =  2  l = 2  LDA+U# 1
 
 onsite density matrix
 
spin component  1
 
  0.7122  0.0000  0.0000  0.0000  0.0000
  0.0000  0.7122  0.0000  0.0000  0.0000
  0.0000  0.0000  0.7122  0.0000  0.0000
  0.0000  0.0000  0.0000  0.7122  0.0000
  0.0000  0.0000  0.0000  0.0000  0.7122
 
spin component  2
 
  0.7094  0.0000  0.0000  0.0000  0.0000
  0.0000  0.7094  0.0000  0.0000  0.0000
  0.0000  0.0000  0.7094  0.0000  0.0000
  0.0000  0.0000  0.0000  0.7094  0.0000
  0.0000  0.0000  0.0000  0.0000  0.7094
 
 occupancies and eigenvectors
 
  o =  0.7094  v =  0.0000  0.0000  0.0000  0.0000  0.0000  1.0000  0.0000  0.0000  0.0000  0.0000      0.0000  0.0000  0.0000  0.0000  0.0000  0.0000  0.0000  0.0000  0.0000  0.0000
  o =  0.7094  v =  0.0000  0.0000  0.0000  0.0000  0.0000  0.0000  1.0000  0.0000  0.0000  0.0000      0.0000  0.0000  0.0000  0.0000  0.0000  0.0000  0.0000  0.0000  0.0000  0.0000
  o =  0.7094  v =  0.0000  0.0000  0.0000  0.0000  0.0000  0.0000  0.0000  0.0000  1.0000  0.0000      0.0000  0.0000  0.0000  0.0000  0.0000  0.0000  0.0000  0.0000  0.0000  0.0000
  o =  0.7094  v =  0.0000  0.0000  0.0000  0.0000  0.0000  0.0000  0.0000  0.0000  0.0000  1.0000      0.0000  0.0000  0.0000  0.0000  0.0000  0.0000  0.0000  0.0000  0.0000  0.0000
  o =  0.7094  v =  0.0000  0.0000  0.0000  0.0000  0.0000  0.0000  0.0000  1.0000  0.0000  0.0000      0.0000  0.0000  0.0000  0.0000  0.0000  0.0000  0.0000  0.0000  0.0000  0.0000
  o =  0.7122  v =  1.0000  0.0000  0.0000  0.0000  0.0000  0.0000  0.0000  0.0000  0.0000  0.0000      0.0000  0.0000  0.0000  0.0000  0.0000  0.0000  0.0000  0.0000  0.0000  0.0000
  o =  0.7122  v =  0.0000  1.0000  0.0000  0.0000  0.0000  0.0000  0.0000  0.0000  0.0000  0.0000      0.0000  0.0000  0.0000  0.0000  0.0000  0.0000  0.0000  0.0000  0.0000  0.0000
  o =  0.7122  v =  0.0000  0.0000  0.0000  0.0000  1.0000  0.0000  0.0000  0.0000  0.0000  0.0000      0.0000  0.0000  0.0000  0.0000  0.0000  0.0000  0.0000  0.0000  0.0000  0.0000
  o =  0.7122  v =  0.0000  0.0000  0.0000  1.0000  0.0000  0.0000  0.0000  0.0000  0.0000  0.0000      0.0000  0.0000  0.0000  0.0000  0.0000  0.0000  0.0000  0.0000  0.0000  0.0000
  o =  0.7122  v =  0.0000  0.0000  1.0000  0.0000  0.0000  0.0000  0.0000  0.0000  0.0000  0.0000      0.0000  0.0000  0.0000  0.0000  0.0000  0.0000  0.0000  0.0000  0.0000  0.0000
 
atom =  12  type =  2  l = 2  LDA+U# 1
 
 onsite density matrix
 
spin component  1
 
  0.7122  0.0000  0.0000  0.0000  0.0000
  0.0000  0.7122  0.0000  0.0000  0.0000
  0.0000  0.0000  0.7122  0.0000  0.0000
  0.0000  0.0000  0.0000  0.7122  0.0000
  0.0000  0.0000  0.0000  0.0000  0.7122
 
spin component  2
 
  0.7094  0.0000  0.0000  0.0000  0.0000
  0.0000  0.7094  0.0000  0.0000  0.0000
  0.0000  0.0000  0.7094  0.0000  0.0000
  0.0000  0.0000  0.0000  0.7094  0.0000
  0.0000  0.0000  0.0000  0.0000  0.7094
 
 occupancies and eigenvectors
 
  o =  0.7094  v =  0.0000  0.0000  0.0000  0.0000  0.0000  1.0000  0.0000  0.0000  0.0000  0.0000      0.0000  0.0000  0.0000  0.0000  0.0000  0.0000  0.0000  0.0000  0.0000  0.0000
  o =  0.7094  v =  0.0000  0.0000  0.0000  0.0000  0.0000  0.0000  1.0000  0.0000  0.0000  0.0000      0.0000  0.0000  0.0000  0.0000  0.0000  0.0000  0.0000  0.0000  0.0000  0.0000
  o =  0.7094  v =  0.0000  0.0000  0.0000  0.0000  0.0000  0.0000  0.0000  0.0000  1.0000  0.0000      0.0000  0.0000  0.0000  0.0000  0.0000  0.0000  0.0000  0.0000  0.0000  0.0000
  o =  0.7094  v =  0.0000  0.0000  0.0000  0.0000  0.0000  0.0000  0.0000  0.0000  0.0000  1.0000      0.0000  0.0000  0.0000  0.0000  0.0000  0.0000  0.0000  0.0000  0.0000  0.0000
  o =  0.7094  v =  0.0000  0.0000  0.0000  0.0000  0.0000  0.0000  0.0000  1.0000  0.0000  0.0000      0.0000  0.0000  0.0000  0.0000  0.0000  0.0000  0.0000  0.0000  0.0000  0.0000
  o =  0.7122  v =  1.0000  0.0000  0.0000  0.0000  0.0000  0.0000  0.0000  0.0000  0.0000  0.0000      0.0000  0.0000  0.0000  0.0000  0.0000  0.0000  0.0000  0.0000  0.0000  0.0000
  o =  0.7122  v =  0.0000  1.0000  0.0000  0.0000  0.0000  0.0000  0.0000  0.0000  0.0000  0.0000      0.0000  0.0000  0.0000  0.0000  0.0000  0.0000  0.0000  0.0000  0.0000  0.0000
  o =  0.7122  v =  0.0000  0.0000  0.0000  0.0000  1.0000  0.0000  0.0000  0.0000  0.0000  0.0000      0.0000  0.0000  0.0000  0.0000  0.0000  0.0000  0.0000  0.0000  0.0000  0.0000
  o =  0.7122  v =  0.0000  0.0000  0.0000  1.0000  0.0000  0.0000  0.0000  0.0000  0.0000  0.0000      0.0000  0.0000  0.0000  0.0000  0.0000  0.0000  0.0000  0.0000  0.0000  0.0000
  o =  0.7122  v =  0.0000  0.0000  1.0000  0.0000  0.0000  0.0000  0.0000  0.0000  0.0000  0.0000      0.0000  0.0000  0.0000  0.0000  0.0000  0.0000  0.0000  0.0000  0.0000  0.0000
 
atom =  13  type =  2  l = 2  LDA+U# 1
 
 onsite density matrix
 
spin component  1
 
  0.7122  0.0000  0.0000  0.0000  0.0000
  0.0000  0.7122  0.0000  0.0000  0.0000
  0.0000  0.0000  0.7122  0.0000  0.0000
  0.0000  0.0000  0.0000  0.7122  0.0000
  0.0000  0.0000  0.0000  0.0000  0.7122
 
spin component  2
 
  0.7094  0.0000  0.0000  0.0000  0.0000
  0.0000  0.7094  0.0000  0.0000  0.0000
  0.0000  0.0000  0.7094  0.0000  0.0000
  0.0000  0.0000  0.0000  0.7094  0.0000
  0.0000  0.0000  0.0000  0.0000  0.7094
 
 occupancies and eigenvectors
 
  o =  0.7094  v =  0.0000  0.0000  0.0000  0.0000  0.0000  1.0000  0.0000  0.0000  0.0000  0.0000      0.0000  0.0000  0.0000  0.0000  0.0000  0.0000  0.0000  0.0000  0.0000  0.0000
  o =  0.7094  v =  0.0000  0.0000  0.0000  0.0000  0.0000  0.0000  1.0000  0.0000  0.0000  0.0000      0.0000  0.0000  0.0000  0.0000  0.0000  0.0000  0.0000  0.0000  0.0000  0.0000
  o =  0.7094  v =  0.0000  0.0000  0.0000  0.0000  0.0000  0.0000  0.0000  0.0000  1.0000  0.0000      0.0000  0.0000  0.0000  0.0000  0.0000  0.0000  0.0000  0.0000  0.0000  0.0000
  o =  0.7094  v =  0.0000  0.0000  0.0000  0.0000  0.0000  0.0000  0.0000  0.0000  0.0000  1.0000      0.0000  0.0000  0.0000  0.0000  0.0000  0.0000  0.0000  0.0000  0.0000  0.0000
  o =  0.7094  v =  0.0000  0.0000  0.0000  0.0000  0.0000  0.0000  0.0000  1.0000  0.0000  0.0000      0.0000  0.0000  0.0000  0.0000  0.0000  0.0000  0.0000  0.0000  0.0000  0.0000
  o =  0.7122  v =  1.0000  0.0000  0.0000  0.0000  0.0000  0.0000  0.0000  0.0000  0.0000  0.0000      0.0000  0.0000  0.0000  0.0000  0.0000  0.0000  0.0000  0.0000  0.0000  0.0000
  o =  0.7122  v =  0.0000  1.0000  0.0000  0.0000  0.0000  0.0000  0.0000  0.0000  0.0000  0.0000      0.0000  0.0000  0.0000  0.0000  0.0000  0.0000  0.0000  0.0000  0.0000  0.0000
  o =  0.7122  v =  0.0000  0.0000  0.0000  0.0000  1.0000  0.0000  0.0000  0.0000  0.0000  0.0000      0.0000  0.0000  0.0000  0.0000  0.0000  0.0000  0.0000  0.0000  0.0000  0.0000
  o =  0.7122  v =  0.0000  0.0000  0.0000  1.0000  0.0000  0.0000  0.0000  0.0000  0.0000  0.0000      0.0000  0.0000  0.0000  0.0000  0.0000  0.0000  0.0000  0.0000  0.0000  0.0000
  o =  0.7122  v =  0.0000  0.0000  1.0000  0.0000  0.0000  0.0000  0.0000  0.0000  0.0000  0.0000      0.0000  0.0000  0.0000  0.0000  0.0000  0.0000  0.0000  0.0000  0.0000  0.0000
 
atom =  14  type =  2  l = 2  LDA+U# 1
 
 onsite density matrix
 
spin component  1
 
  0.7122  0.0000  0.0000  0.0000  0.0000
  0.0000  0.7122  0.0000  0.0000  0.0000
  0.0000  0.0000  0.7122  0.0000  0.0000
  0.0000  0.0000  0.0000  0.7122  0.0000
  0.0000  0.0000  0.0000  0.0000  0.7122
 
spin component  2
 
  0.7094  0.0000  0.0000  0.0000  0.0000
  0.0000  0.7094  0.0000  0.0000  0.0000
  0.0000  0.0000  0.7094  0.0000  0.0000
  0.0000  0.0000  0.0000  0.7094  0.0000
  0.0000  0.0000  0.0000  0.0000  0.7094
 
 occupancies and eigenvectors
 
  o =  0.7094  v =  0.0000  0.0000  0.0000  0.0000  0.0000  1.0000  0.0000  0.0000  0.0000  0.0000      0.0000  0.0000  0.0000  0.0000  0.0000  0.0000  0.0000  0.0000  0.0000  0.0000
  o =  0.7094  v =  0.0000  0.0000  0.0000  0.0000  0.0000  0.0000  1.0000  0.0000  0.0000  0.0000      0.0000  0.0000  0.0000  0.0000  0.0000  0.0000  0.0000  0.0000  0.0000  0.0000
  o =  0.7094  v =  0.0000  0.0000  0.0000  0.0000  0.0000  0.0000  0.0000  0.0000  1.0000  0.0000      0.0000  0.0000  0.0000  0.0000  0.0000  0.0000  0.0000  0.0000  0.0000  0.0000
  o =  0.7094  v =  0.0000  0.0000  0.0000  0.0000  0.0000  0.0000  0.0000  0.0000  0.0000  1.0000      0.0000  0.0000  0.0000  0.0000  0.0000  0.0000  0.0000  0.0000  0.0000  0.0000
  o =  0.7094  v =  0.0000  0.0000  0.0000  0.0000  0.0000  0.0000  0.0000  1.0000  0.0000  0.0000      0.0000  0.0000  0.0000  0.0000  0.0000  0.0000  0.0000  0.0000  0.0000  0.0000
  o =  0.7122  v =  1.0000  0.0000  0.0000  0.0000  0.0000  0.0000  0.0000  0.0000  0.0000  0.0000      0.0000  0.0000  0.0000  0.0000  0.0000  0.0000  0.0000  0.0000  0.0000  0.0000
  o =  0.7122  v =  0.0000  1.0000  0.0000  0.0000  0.0000  0.0000  0.0000  0.0000  0.0000  0.0000      0.0000  0.0000  0.0000  0.0000  0.0000  0.0000  0.0000  0.0000  0.0000  0.0000
  o =  0.7122  v =  0.0000  0.0000  0.0000  0.0000  1.0000  0.0000  0.0000  0.0000  0.0000  0.0000      0.0000  0.0000  0.0000  0.0000  0.0000  0.0000  0.0000  0.0000  0.0000  0.0000
  o =  0.7122  v =  0.0000  0.0000  0.0000  1.0000  0.0000  0.0000  0.0000  0.0000  0.0000  0.0000      0.0000  0.0000  0.0000  0.0000  0.0000  0.0000  0.0000  0.0000  0.0000  0.0000
  o =  0.7122  v =  0.0000  0.0000  1.0000  0.0000  0.0000  0.0000  0.0000  0.0000  0.0000  0.0000      0.0000  0.0000  0.0000  0.0000  0.0000  0.0000  0.0000  0.0000  0.0000  0.0000
 
atom =  15  type =  2  l = 2  LDA+U# 1
 
 onsite density matrix
 
spin component  1
 
  0.7122  0.0000  0.0000  0.0000  0.0000
  0.0000  0.7122  0.0000  0.0000  0.0000
  0.0000  0.0000  0.7122  0.0000  0.0000
  0.0000  0.0000  0.0000  0.7122  0.0000
  0.0000  0.0000  0.0000  0.0000  0.7122
 
spin component  2
 
  0.7094  0.0000  0.0000  0.0000  0.0000
  0.0000  0.7094  0.0000  0.0000  0.0000
  0.0000  0.0000  0.7094  0.0000  0.0000
  0.0000  0.0000  0.0000  0.7094  0.0000
  0.0000  0.0000  0.0000  0.0000  0.7094
 
 occupancies and eigenvectors
 
  o =  0.7094  v =  0.0000  0.0000  0.0000  0.0000  0.0000  1.0000  0.0000  0.0000  0.0000  0.0000      0.0000  0.0000  0.0000  0.0000  0.0000  0.0000  0.0000  0.0000  0.0000  0.0000
  o =  0.7094  v =  0.0000  0.0000  0.0000  0.0000  0.0000  0.0000  1.0000  0.0000  0.0000  0.0000      0.0000  0.0000  0.0000  0.0000  0.0000  0.0000  0.0000  0.0000  0.0000  0.0000
  o =  0.7094  v =  0.0000  0.0000  0.0000  0.0000  0.0000  0.0000  0.0000  0.0000  1.0000  0.0000      0.0000  0.0000  0.0000  0.0000  0.0000  0.0000  0.0000  0.0000  0.0000  0.0000
  o =  0.7094  v =  0.0000  0.0000  0.0000  0.0000  0.0000  0.0000  0.0000  0.0000  0.0000  1.0000      0.0000  0.0000  0.0000  0.0000  0.0000  0.0000  0.0000  0.0000  0.0000  0.0000
  o =  0.7094  v =  0.0000  0.0000  0.0000  0.0000  0.0000  0.0000  0.0000  1.0000  0.0000  0.0000      0.0000  0.0000  0.0000  0.0000  0.0000  0.0000  0.0000  0.0000  0.0000  0.0000
  o =  0.7122  v =  1.0000  0.0000  0.0000  0.0000  0.0000  0.0000  0.0000  0.0000  0.0000  0.0000      0.0000  0.0000  0.0000  0.0000  0.0000  0.0000  0.0000  0.0000  0.0000  0.0000
  o =  0.7122  v =  0.0000  1.0000  0.0000  0.0000  0.0000  0.0000  0.0000  0.0000  0.0000  0.0000      0.0000  0.0000  0.0000  0.0000  0.0000  0.0000  0.0000  0.0000  0.0000  0.0000
  o =  0.7122  v =  0.0000  0.0000  0.0000  0.0000  1.0000  0.0000  0.0000  0.0000  0.0000  0.0000      0.0000  0.0000  0.0000  0.0000  0.0000  0.0000  0.0000  0.0000  0.0000  0.0000
  o =  0.7122  v =  0.0000  0.0000  0.0000  1.0000  0.0000  0.0000  0.0000  0.0000  0.0000  0.0000      0.0000  0.0000  0.0000  0.0000  0.0000  0.0000  0.0000  0.0000  0.0000  0.0000
  o =  0.7122  v =  0.0000  0.0000  1.0000  0.0000  0.0000  0.0000  0.0000  0.0000  0.0000  0.0000      0.0000  0.0000  0.0000  0.0000  0.0000  0.0000  0.0000  0.0000  0.0000  0.0000
 
atom =  16  type =  2  l = 2  LDA+U# 1
 
 onsite density matrix
 
spin component  1
 
  0.7122  0.0000  0.0000  0.0000  0.0000
  0.0000  0.7122  0.0000  0.0000  0.0000
  0.0000  0.0000  0.7122  0.0000  0.0000
  0.0000  0.0000  0.0000  0.7122  0.0000
  0.0000  0.0000  0.0000  0.0000  0.7122
 
spin component  2
 
  0.7094  0.0000  0.0000  0.0000  0.0000
  0.0000  0.7094  0.0000  0.0000  0.0000
  0.0000  0.0000  0.7094  0.0000  0.0000
  0.0000  0.0000  0.0000  0.7094  0.0000
  0.0000  0.0000  0.0000  0.0000  0.7094
 
 occupancies and eigenvectors
 
  o =  0.7094  v =  0.0000  0.0000  0.0000  0.0000  0.0000  1.0000  0.0000  0.0000  0.0000  0.0000      0.0000  0.0000  0.0000  0.0000  0.0000  0.0000  0.0000  0.0000  0.0000  0.0000
  o =  0.7094  v =  0.0000  0.0000  0.0000  0.0000  0.0000  0.0000  1.0000  0.0000  0.0000  0.0000      0.0000  0.0000  0.0000  0.0000  0.0000  0.0000  0.0000  0.0000  0.0000  0.0000
  o =  0.7094  v =  0.0000  0.0000  0.0000  0.0000  0.0000  0.0000  0.0000  0.0000  1.0000  0.0000      0.0000  0.0000  0.0000  0.0000  0.0000  0.0000  0.0000  0.0000  0.0000  0.0000
  o =  0.7094  v =  0.0000  0.0000  0.0000  0.0000  0.0000  0.0000  0.0000  0.0000  0.0000  1.0000      0.0000  0.0000  0.0000  0.0000  0.0000  0.0000  0.0000  0.0000  0.0000  0.0000
  o =  0.7094  v =  0.0000  0.0000  0.0000  0.0000  0.0000  0.0000  0.0000  1.0000  0.0000  0.0000      0.0000  0.0000  0.0000  0.0000  0.0000  0.0000  0.0000  0.0000  0.0000  0.0000
  o =  0.7122  v =  1.0000  0.0000  0.0000  0.0000  0.0000  0.0000  0.0000  0.0000  0.0000  0.0000      0.0000  0.0000  0.0000  0.0000  0.0000  0.0000  0.0000  0.0000  0.0000  0.0000
  o =  0.7122  v =  0.0000  1.0000  0.0000  0.0000  0.0000  0.0000  0.0000  0.0000  0.0000  0.0000      0.0000  0.0000  0.0000  0.0000  0.0000  0.0000  0.0000  0.0000  0.0000  0.0000
  o =  0.7122  v =  0.0000  0.0000  0.0000  0.0000  1.0000  0.0000  0.0000  0.0000  0.0000  0.0000      0.0000  0.0000  0.0000  0.0000  0.0000  0.0000  0.0000  0.0000  0.0000  0.0000
  o =  0.7122  v =  0.0000  0.0000  0.0000  1.0000  0.0000  0.0000  0.0000  0.0000  0.0000  0.0000      0.0000  0.0000  0.0000  0.0000  0.0000  0.0000  0.0000  0.0000  0.0000  0.0000
  o =  0.7122  v =  0.0000  0.0000  1.0000  0.0000  0.0000  0.0000  0.0000  0.0000  0.0000  0.0000      0.0000  0.0000  0.0000  0.0000  0.0000  0.0000  0.0000  0.0000  0.0000  0.0000
 
atom =  17  type =  2  l = 2  LDA+U# 1
 
 onsite density matrix
 
spin component  1
 
  0.7122  0.0000  0.0000  0.0000  0.0000
  0.0000  0.7122  0.0000  0.0000  0.0000
  0.0000  0.0000  0.7122  0.0000  0.0000
  0.0000  0.0000  0.0000  0.7122  0.0000
  0.0000  0.0000  0.0000  0.0000  0.7122
 
spin component  2
 
  0.7094  0.0000  0.0000  0.0000  0.0000
  0.0000  0.7094  0.0000  0.0000  0.0000
  0.0000  0.0000  0.7094  0.0000  0.0000
  0.0000  0.0000  0.0000  0.7094  0.0000
  0.0000  0.0000  0.0000  0.0000  0.7094
 
 occupancies and eigenvectors
 
  o =  0.7094  v =  0.0000  0.0000  0.0000  0.0000  0.0000  1.0000  0.0000  0.0000  0.0000  0.0000      0.0000  0.0000  0.0000  0.0000  0.0000  0.0000  0.0000  0.0000  0.0000  0.0000
  o =  0.7094  v =  0.0000  0.0000  0.0000  0.0000  0.0000  0.0000  1.0000  0.0000  0.0000  0.0000      0.0000  0.0000  0.0000  0.0000  0.0000  0.0000  0.0000  0.0000  0.0000  0.0000
  o =  0.7094  v =  0.0000  0.0000  0.0000  0.0000  0.0000  0.0000  0.0000  0.0000  1.0000  0.0000      0.0000  0.0000  0.0000  0.0000  0.0000  0.0000  0.0000  0.0000  0.0000  0.0000
  o =  0.7094  v =  0.0000  0.0000  0.0000  0.0000  0.0000  0.0000  0.0000  0.0000  0.0000  1.0000      0.0000  0.0000  0.0000  0.0000  0.0000  0.0000  0.0000  0.0000  0.0000  0.0000
  o =  0.7094  v =  0.0000  0.0000  0.0000  0.0000  0.0000  0.0000  0.0000  1.0000  0.0000  0.0000      0.0000  0.0000  0.0000  0.0000  0.0000  0.0000  0.0000  0.0000  0.0000  0.0000
  o =  0.7122  v =  1.0000  0.0000  0.0000  0.0000  0.0000  0.0000  0.0000  0.0000  0.0000  0.0000      0.0000  0.0000  0.0000  0.0000  0.0000  0.0000  0.0000  0.0000  0.0000  0.0000
  o =  0.7122  v =  0.0000  1.0000  0.0000  0.0000  0.0000  0.0000  0.0000  0.0000  0.0000  0.0000      0.0000  0.0000  0.0000  0.0000  0.0000  0.0000  0.0000  0.0000  0.0000  0.0000
  o =  0.7122  v =  0.0000  0.0000  0.0000  0.0000  1.0000  0.0000  0.0000  0.0000  0.0000  0.0000      0.0000  0.0000  0.0000  0.0000  0.0000  0.0000  0.0000  0.0000  0.0000  0.0000
  o =  0.7122  v =  0.0000  0.0000  0.0000  1.0000  0.0000  0.0000  0.0000  0.0000  0.0000  0.0000      0.0000  0.0000  0.0000  0.0000  0.0000  0.0000  0.0000  0.0000  0.0000  0.0000
  o =  0.7122  v =  0.0000  0.0000  1.0000  0.0000  0.0000  0.0000  0.0000  0.0000  0.0000  0.0000      0.0000  0.0000  0.0000  0.0000  0.0000  0.0000  0.0000  0.0000  0.0000  0.0000
 
atom =  18  type =  2  l = 2  LDA+U# 1
 
 onsite density matrix
 
spin component  1
 
  0.7122  0.0000  0.0000  0.0000  0.0000
  0.0000  0.7122  0.0000  0.0000  0.0000
  0.0000  0.0000  0.7122  0.0000  0.0000
  0.0000  0.0000  0.0000  0.7122  0.0000
  0.0000  0.0000  0.0000  0.0000  0.7122
 
spin component  2
 
  0.7094  0.0000  0.0000  0.0000  0.0000
  0.0000  0.7094  0.0000  0.0000  0.0000
  0.0000  0.0000  0.7094  0.0000  0.0000
  0.0000  0.0000  0.0000  0.7094  0.0000
  0.0000  0.0000  0.0000  0.0000  0.7094
 
 occupancies and eigenvectors
 
  o =  0.7094  v =  0.0000  0.0000  0.0000  0.0000  0.0000  1.0000  0.0000  0.0000  0.0000  0.0000      0.0000  0.0000  0.0000  0.0000  0.0000  0.0000  0.0000  0.0000  0.0000  0.0000
  o =  0.7094  v =  0.0000  0.0000  0.0000  0.0000  0.0000  0.0000  1.0000  0.0000  0.0000  0.0000      0.0000  0.0000  0.0000  0.0000  0.0000  0.0000  0.0000  0.0000  0.0000  0.0000
  o =  0.7094  v =  0.0000  0.0000  0.0000  0.0000  0.0000  0.0000  0.0000  0.0000  1.0000  0.0000      0.0000  0.0000  0.0000  0.0000  0.0000  0.0000  0.0000  0.0000  0.0000  0.0000
  o =  0.7094  v =  0.0000  0.0000  0.0000  0.0000  0.0000  0.0000  0.0000  0.0000  0.0000  1.0000      0.0000  0.0000  0.0000  0.0000  0.0000  0.0000  0.0000  0.0000  0.0000  0.0000
  o =  0.7094  v =  0.0000  0.0000  0.0000  0.0000  0.0000  0.0000  0.0000  1.0000  0.0000  0.0000      0.0000  0.0000  0.0000  0.0000  0.0000  0.0000  0.0000  0.0000  0.0000  0.0000
  o =  0.7122  v =  1.0000  0.0000  0.0000  0.0000  0.0000  0.0000  0.0000  0.0000  0.0000  0.0000      0.0000  0.0000  0.0000  0.0000  0.0000  0.0000  0.0000  0.0000  0.0000  0.0000
  o =  0.7122  v =  0.0000  1.0000  0.0000  0.0000  0.0000  0.0000  0.0000  0.0000  0.0000  0.0000      0.0000  0.0000  0.0000  0.0000  0.0000  0.0000  0.0000  0.0000  0.0000  0.0000
  o =  0.7122  v =  0.0000  0.0000  0.0000  0.0000  1.0000  0.0000  0.0000  0.0000  0.0000  0.0000      0.0000  0.0000  0.0000  0.0000  0.0000  0.0000  0.0000  0.0000  0.0000  0.0000
  o =  0.7122  v =  0.0000  0.0000  0.0000  1.0000  0.0000  0.0000  0.0000  0.0000  0.0000  0.0000      0.0000  0.0000  0.0000  0.0000  0.0000  0.0000  0.0000  0.0000  0.0000  0.0000
  o =  0.7122  v =  0.0000  0.0000  1.0000  0.0000  0.0000  0.0000  0.0000  0.0000  0.0000  0.0000      0.0000  0.0000  0.0000  0.0000  0.0000  0.0000  0.0000  0.0000  0.0000  0.0000
 
atom =  19  type =  2  l = 2  LDA+U# 1
 
 onsite density matrix
 
spin component  1
 
  0.7122  0.0000  0.0000  0.0000  0.0000
  0.0000  0.7122  0.0000  0.0000  0.0000
  0.0000  0.0000  0.7122  0.0000  0.0000
  0.0000  0.0000  0.0000  0.7122  0.0000
  0.0000  0.0000  0.0000  0.0000  0.7122
 
spin component  2
 
  0.7094  0.0000  0.0000  0.0000  0.0000
  0.0000  0.7094  0.0000  0.0000  0.0000
  0.0000  0.0000  0.7094  0.0000  0.0000
  0.0000  0.0000  0.0000  0.7094  0.0000
  0.0000  0.0000  0.0000  0.0000  0.7094
 
 occupancies and eigenvectors
 
  o =  0.7094  v =  0.0000  0.0000  0.0000  0.0000  0.0000  1.0000  0.0000  0.0000  0.0000  0.0000      0.0000  0.0000  0.0000  0.0000  0.0000  0.0000  0.0000  0.0000  0.0000  0.0000
  o =  0.7094  v =  0.0000  0.0000  0.0000  0.0000  0.0000  0.0000  1.0000  0.0000  0.0000  0.0000      0.0000  0.0000  0.0000  0.0000  0.0000  0.0000  0.0000  0.0000  0.0000  0.0000
  o =  0.7094  v =  0.0000  0.0000  0.0000  0.0000  0.0000  0.0000  0.0000  0.0000  1.0000  0.0000      0.0000  0.0000  0.0000  0.0000  0.0000  0.0000  0.0000  0.0000  0.0000  0.0000
  o =  0.7094  v =  0.0000  0.0000  0.0000  0.0000  0.0000  0.0000  0.0000  0.0000  0.0000  1.0000      0.0000  0.0000  0.0000  0.0000  0.0000  0.0000  0.0000  0.0000  0.0000  0.0000
  o =  0.7094  v =  0.0000  0.0000  0.0000  0.0000  0.0000  0.0000  0.0000  1.0000  0.0000  0.0000      0.0000  0.0000  0.0000  0.0000  0.0000  0.0000  0.0000  0.0000  0.0000  0.0000
  o =  0.7122  v =  1.0000  0.0000  0.0000  0.0000  0.0000  0.0000  0.0000  0.0000  0.0000  0.0000      0.0000  0.0000  0.0000  0.0000  0.0000  0.0000  0.0000  0.0000  0.0000  0.0000
  o =  0.7122  v =  0.0000  1.0000  0.0000  0.0000  0.0000  0.0000  0.0000  0.0000  0.0000  0.0000      0.0000  0.0000  0.0000  0.0000  0.0000  0.0000  0.0000  0.0000  0.0000  0.0000
  o =  0.7122  v =  0.0000  0.0000  0.0000  0.0000  1.0000  0.0000  0.0000  0.0000  0.0000  0.0000      0.0000  0.0000  0.0000  0.0000  0.0000  0.0000  0.0000  0.0000  0.0000  0.0000
  o =  0.7122  v =  0.0000  0.0000  0.0000  1.0000  0.0000  0.0000  0.0000  0.0000  0.0000  0.0000      0.0000  0.0000  0.0000  0.0000  0.0000  0.0000  0.0000  0.0000  0.0000  0.0000
  o =  0.7122  v =  0.0000  0.0000  1.0000  0.0000  0.0000  0.0000  0.0000  0.0000  0.0000  0.0000      0.0000  0.0000  0.0000  0.0000  0.0000  0.0000  0.0000  0.0000  0.0000  0.0000
 
atom =  20  type =  2  l = 2  LDA+U# 1
 
 onsite density matrix
 
spin component  1
 
  0.7122  0.0000  0.0000  0.0000  0.0000
  0.0000  0.7122  0.0000  0.0000  0.0000
  0.0000  0.0000  0.7122  0.0000  0.0000
  0.0000  0.0000  0.0000  0.7122  0.0000
  0.0000  0.0000  0.0000  0.0000  0.7122
 
spin component  2
 
  0.7094  0.0000  0.0000  0.0000  0.0000
  0.0000  0.7094  0.0000  0.0000  0.0000
  0.0000  0.0000  0.7094  0.0000  0.0000
  0.0000  0.0000  0.0000  0.7094  0.0000
  0.0000  0.0000  0.0000  0.0000  0.7094
 
 occupancies and eigenvectors
 
  o =  0.7094  v =  0.0000  0.0000  0.0000  0.0000  0.0000  1.0000  0.0000  0.0000  0.0000  0.0000      0.0000  0.0000  0.0000  0.0000  0.0000  0.0000  0.0000  0.0000  0.0000  0.0000
  o =  0.7094  v =  0.0000  0.0000  0.0000  0.0000  0.0000  0.0000  1.0000  0.0000  0.0000  0.0000      0.0000  0.0000  0.0000  0.0000  0.0000  0.0000  0.0000  0.0000  0.0000  0.0000
  o =  0.7094  v =  0.0000  0.0000  0.0000  0.0000  0.0000  0.0000  0.0000  0.0000  1.0000  0.0000      0.0000  0.0000  0.0000  0.0000  0.0000  0.0000  0.0000  0.0000  0.0000  0.0000
  o =  0.7094  v =  0.0000  0.0000  0.0000  0.0000  0.0000  0.0000  0.0000  0.0000  0.0000  1.0000      0.0000  0.0000  0.0000  0.0000  0.0000  0.0000  0.0000  0.0000  0.0000  0.0000
  o =  0.7094  v =  0.0000  0.0000  0.0000  0.0000  0.0000  0.0000  0.0000  1.0000  0.0000  0.0000      0.0000  0.0000  0.0000  0.0000  0.0000  0.0000  0.0000  0.0000  0.0000  0.0000
  o =  0.7122  v =  1.0000  0.0000  0.0000  0.0000  0.0000  0.0000  0.0000  0.0000  0.0000  0.0000      0.0000  0.0000  0.0000  0.0000  0.0000  0.0000  0.0000  0.0000  0.0000  0.0000
  o =  0.7122  v =  0.0000  1.0000  0.0000  0.0000  0.0000  0.0000  0.0000  0.0000  0.0000  0.0000      0.0000  0.0000  0.0000  0.0000  0.0000  0.0000  0.0000  0.0000  0.0000  0.0000
  o =  0.7122  v =  0.0000  0.0000  0.0000  0.0000  1.0000  0.0000  0.0000  0.0000  0.0000  0.0000      0.0000  0.0000  0.0000  0.0000  0.0000  0.0000  0.0000  0.0000  0.0000  0.0000
  o =  0.7122  v =  0.0000  0.0000  0.0000  1.0000  0.0000  0.0000  0.0000  0.0000  0.0000  0.0000      0.0000  0.0000  0.0000  0.0000  0.0000  0.0000  0.0000  0.0000  0.0000  0.0000
  o =  0.7122  v =  0.0000  0.0000  1.0000  0.0000  0.0000  0.0000  0.0000  0.0000  0.0000  0.0000      0.0000  0.0000  0.0000  0.0000  0.0000  0.0000  0.0000  0.0000  0.0000  0.0000
 
atom =  21  type =  2  l = 2  LDA+U# 1
 
 onsite density matrix
 
spin component  1
 
  0.7122  0.0000  0.0000  0.0000  0.0000
  0.0000  0.7122  0.0000  0.0000  0.0000
  0.0000  0.0000  0.7122  0.0000  0.0000
  0.0000  0.0000  0.0000  0.7122  0.0000
  0.0000  0.0000  0.0000  0.0000  0.7122
 
spin component  2
 
  0.7094  0.0000  0.0000  0.0000  0.0000
  0.0000  0.7094  0.0000  0.0000  0.0000
  0.0000  0.0000  0.7094  0.0000  0.0000
  0.0000  0.0000  0.0000  0.7094  0.0000
  0.0000  0.0000  0.0000  0.0000  0.7094
 
 occupancies and eigenvectors
 
  o =  0.7094  v =  0.0000  0.0000  0.0000  0.0000  0.0000  1.0000  0.0000  0.0000  0.0000  0.0000      0.0000  0.0000  0.0000  0.0000  0.0000  0.0000  0.0000  0.0000  0.0000  0.0000
  o =  0.7094  v =  0.0000  0.0000  0.0000  0.0000  0.0000  0.0000  1.0000  0.0000  0.0000  0.0000      0.0000  0.0000  0.0000  0.0000  0.0000  0.0000  0.0000  0.0000  0.0000  0.0000
  o =  0.7094  v =  0.0000  0.0000  0.0000  0.0000  0.0000  0.0000  0.0000  0.0000  1.0000  0.0000      0.0000  0.0000  0.0000  0.0000  0.0000  0.0000  0.0000  0.0000  0.0000  0.0000
  o =  0.7094  v =  0.0000  0.0000  0.0000  0.0000  0.0000  0.0000  0.0000  0.0000  0.0000  1.0000      0.0000  0.0000  0.0000  0.0000  0.0000  0.0000  0.0000  0.0000  0.0000  0.0000
  o =  0.7094  v =  0.0000  0.0000  0.0000  0.0000  0.0000  0.0000  0.0000  1.0000  0.0000  0.0000      0.0000  0.0000  0.0000  0.0000  0.0000  0.0000  0.0000  0.0000  0.0000  0.0000
  o =  0.7122  v =  1.0000  0.0000  0.0000  0.0000  0.0000  0.0000  0.0000  0.0000  0.0000  0.0000      0.0000  0.0000  0.0000  0.0000  0.0000  0.0000  0.0000  0.0000  0.0000  0.0000
  o =  0.7122  v =  0.0000  1.0000  0.0000  0.0000  0.0000  0.0000  0.0000  0.0000  0.0000  0.0000      0.0000  0.0000  0.0000  0.0000  0.0000  0.0000  0.0000  0.0000  0.0000  0.0000
  o =  0.7122  v =  0.0000  0.0000  0.0000  0.0000  1.0000  0.0000  0.0000  0.0000  0.0000  0.0000      0.0000  0.0000  0.0000  0.0000  0.0000  0.0000  0.0000  0.0000  0.0000  0.0000
  o =  0.7122  v =  0.0000  0.0000  0.0000  1.0000  0.0000  0.0000  0.0000  0.0000  0.0000  0.0000      0.0000  0.0000  0.0000  0.0000  0.0000  0.0000  0.0000  0.0000  0.0000  0.0000
  o =  0.7122  v =  0.0000  0.0000  1.0000  0.0000  0.0000  0.0000  0.0000  0.0000  0.0000  0.0000      0.0000  0.0000  0.0000  0.0000  0.0000  0.0000  0.0000  0.0000  0.0000  0.0000
 
atom =  22  type =  2  l = 2  LDA+U# 1
 
 onsite density matrix
 
spin component  1
 
  0.7122  0.0000  0.0000  0.0000  0.0000
  0.0000  0.7122  0.0000  0.0000  0.0000
  0.0000  0.0000  0.7122  0.0000  0.0000
  0.0000  0.0000  0.0000  0.7122  0.0000
  0.0000  0.0000  0.0000  0.0000  0.7122
 
spin component  2
 
  0.7094  0.0000  0.0000  0.0000  0.0000
  0.0000  0.7094  0.0000  0.0000  0.0000
  0.0000  0.0000  0.7094  0.0000  0.0000
  0.0000  0.0000  0.0000  0.7094  0.0000
  0.0000  0.0000  0.0000  0.0000  0.7094
 
 occupancies and eigenvectors
 
  o =  0.7094  v =  0.0000  0.0000  0.0000  0.0000  0.0000  1.0000  0.0000  0.0000  0.0000  0.0000      0.0000  0.0000  0.0000  0.0000  0.0000  0.0000  0.0000  0.0000  0.0000  0.0000
  o =  0.7094  v =  0.0000  0.0000  0.0000  0.0000  0.0000  0.0000  1.0000  0.0000  0.0000  0.0000      0.0000  0.0000  0.0000  0.0000  0.0000  0.0000  0.0000  0.0000  0.0000  0.0000
  o =  0.7094  v =  0.0000  0.0000  0.0000  0.0000  0.0000  0.0000  0.0000  0.0000  1.0000  0.0000      0.0000  0.0000  0.0000  0.0000  0.0000  0.0000  0.0000  0.0000  0.0000  0.0000
  o =  0.7094  v =  0.0000  0.0000  0.0000  0.0000  0.0000  0.0000  0.0000  0.0000  0.0000  1.0000      0.0000  0.0000  0.0000  0.0000  0.0000  0.0000  0.0000  0.0000  0.0000  0.0000
  o =  0.7094  v =  0.0000  0.0000  0.0000  0.0000  0.0000  0.0000  0.0000  1.0000  0.0000  0.0000      0.0000  0.0000  0.0000  0.0000  0.0000  0.0000  0.0000  0.0000  0.0000  0.0000
  o =  0.7122  v =  1.0000  0.0000  0.0000  0.0000  0.0000  0.0000  0.0000  0.0000  0.0000  0.0000      0.0000  0.0000  0.0000  0.0000  0.0000  0.0000  0.0000  0.0000  0.0000  0.0000
  o =  0.7122  v =  0.0000  1.0000  0.0000  0.0000  0.0000  0.0000  0.0000  0.0000  0.0000  0.0000      0.0000  0.0000  0.0000  0.0000  0.0000  0.0000  0.0000  0.0000  0.0000  0.0000
  o =  0.7122  v =  0.0000  0.0000  0.0000  0.0000  1.0000  0.0000  0.0000  0.0000  0.0000  0.0000      0.0000  0.0000  0.0000  0.0000  0.0000  0.0000  0.0000  0.0000  0.0000  0.0000
  o =  0.7122  v =  0.0000  0.0000  0.0000  1.0000  0.0000  0.0000  0.0000  0.0000  0.0000  0.0000      0.0000  0.0000  0.0000  0.0000  0.0000  0.0000  0.0000  0.0000  0.0000  0.0000
  o =  0.7122  v =  0.0000  0.0000  1.0000  0.0000  0.0000  0.0000  0.0000  0.0000  0.0000  0.0000      0.0000  0.0000  0.0000  0.0000  0.0000  0.0000  0.0000  0.0000  0.0000  0.0000
 
atom =  23  type =  2  l = 2  LDA+U# 1
 
 onsite density matrix
 
spin component  1
 
  0.7122  0.0000  0.0000  0.0000  0.0000
  0.0000  0.7122  0.0000  0.0000  0.0000
  0.0000  0.0000  0.7122  0.0000  0.0000
  0.0000  0.0000  0.0000  0.7122  0.0000
  0.0000  0.0000  0.0000  0.0000  0.7122
 
spin component  2
 
  0.7094  0.0000  0.0000  0.0000  0.0000
  0.0000  0.7094  0.0000  0.0000  0.0000
  0.0000  0.0000  0.7094  0.0000  0.0000
  0.0000  0.0000  0.0000  0.7094  0.0000
  0.0000  0.0000  0.0000  0.0000  0.7094
 
 occupancies and eigenvectors
 
  o =  0.7094  v =  0.0000  0.0000  0.0000  0.0000  0.0000  1.0000  0.0000  0.0000  0.0000  0.0000      0.0000  0.0000  0.0000  0.0000  0.0000  0.0000  0.0000  0.0000  0.0000  0.0000
  o =  0.7094  v =  0.0000  0.0000  0.0000  0.0000  0.0000  0.0000  1.0000  0.0000  0.0000  0.0000      0.0000  0.0000  0.0000  0.0000  0.0000  0.0000  0.0000  0.0000  0.0000  0.0000
  o =  0.7094  v =  0.0000  0.0000  0.0000  0.0000  0.0000  0.0000  0.0000  0.0000  1.0000  0.0000      0.0000  0.0000  0.0000  0.0000  0.0000  0.0000  0.0000  0.0000  0.0000  0.0000
  o =  0.7094  v =  0.0000  0.0000  0.0000  0.0000  0.0000  0.0000  0.0000  0.0000  0.0000  1.0000      0.0000  0.0000  0.0000  0.0000  0.0000  0.0000  0.0000  0.0000  0.0000  0.0000
  o =  0.7094  v =  0.0000  0.0000  0.0000  0.0000  0.0000  0.0000  0.0000  1.0000  0.0000  0.0000      0.0000  0.0000  0.0000  0.0000  0.0000  0.0000  0.0000  0.0000  0.0000  0.0000
  o =  0.7122  v =  1.0000  0.0000  0.0000  0.0000  0.0000  0.0000  0.0000  0.0000  0.0000  0.0000      0.0000  0.0000  0.0000  0.0000  0.0000  0.0000  0.0000  0.0000  0.0000  0.0000
  o =  0.7122  v =  0.0000  1.0000  0.0000  0.0000  0.0000  0.0000  0.0000  0.0000  0.0000  0.0000      0.0000  0.0000  0.0000  0.0000  0.0000  0.0000  0.0000  0.0000  0.0000  0.0000
  o =  0.7122  v =  0.0000  0.0000  0.0000  0.0000  1.0000  0.0000  0.0000  0.0000  0.0000  0.0000      0.0000  0.0000  0.0000  0.0000  0.0000  0.0000  0.0000  0.0000  0.0000  0.0000
  o =  0.7122  v =  0.0000  0.0000  0.0000  1.0000  0.0000  0.0000  0.0000  0.0000  0.0000  0.0000      0.0000  0.0000  0.0000  0.0000  0.0000  0.0000  0.0000  0.0000  0.0000  0.0000
  o =  0.7122  v =  0.0000  0.0000  1.0000  0.0000  0.0000  0.0000  0.0000  0.0000  0.0000  0.0000      0.0000  0.0000  0.0000  0.0000  0.0000  0.0000  0.0000  0.0000  0.0000  0.0000
 
atom =  24  type =  2  l = 2  LDA+U# 1
 
 onsite density matrix
 
spin component  1
 
  0.7122  0.0000  0.0000  0.0000  0.0000
  0.0000  0.7122  0.0000  0.0000  0.0000
  0.0000  0.0000  0.7122  0.0000  0.0000
  0.0000  0.0000  0.0000  0.7122  0.0000
  0.0000  0.0000  0.0000  0.0000  0.7122
 
spin component  2
 
  0.7094  0.0000  0.0000  0.0000  0.0000
  0.0000  0.7094  0.0000  0.0000  0.0000
  0.0000  0.0000  0.7094  0.0000  0.0000
  0.0000  0.0000  0.0000  0.7094  0.0000
  0.0000  0.0000  0.0000  0.0000  0.7094
 
 occupancies and eigenvectors
 
  o =  0.7094  v =  0.0000  0.0000  0.0000  0.0000  0.0000  1.0000  0.0000  0.0000  0.0000  0.0000      0.0000  0.0000  0.0000  0.0000  0.0000  0.0000  0.0000  0.0000  0.0000  0.0000
  o =  0.7094  v =  0.0000  0.0000  0.0000  0.0000  0.0000  0.0000  1.0000  0.0000  0.0000  0.0000      0.0000  0.0000  0.0000  0.0000  0.0000  0.0000  0.0000  0.0000  0.0000  0.0000
  o =  0.7094  v =  0.0000  0.0000  0.0000  0.0000  0.0000  0.0000  0.0000  0.0000  1.0000  0.0000      0.0000  0.0000  0.0000  0.0000  0.0000  0.0000  0.0000  0.0000  0.0000  0.0000
  o =  0.7094  v =  0.0000  0.0000  0.0000  0.0000  0.0000  0.0000  0.0000  0.0000  0.0000  1.0000      0.0000  0.0000  0.0000  0.0000  0.0000  0.0000  0.0000  0.0000  0.0000  0.0000
  o =  0.7094  v =  0.0000  0.0000  0.0000  0.0000  0.0000  0.0000  0.0000  1.0000  0.0000  0.0000      0.0000  0.0000  0.0000  0.0000  0.0000  0.0000  0.0000  0.0000  0.0000  0.0000
  o =  0.7122  v =  1.0000  0.0000  0.0000  0.0000  0.0000  0.0000  0.0000  0.0000  0.0000  0.0000      0.0000  0.0000  0.0000  0.0000  0.0000  0.0000  0.0000  0.0000  0.0000  0.0000
  o =  0.7122  v =  0.0000  1.0000  0.0000  0.0000  0.0000  0.0000  0.0000  0.0000  0.0000  0.0000      0.0000  0.0000  0.0000  0.0000  0.0000  0.0000  0.0000  0.0000  0.0000  0.0000
  o =  0.7122  v =  0.0000  0.0000  0.0000  0.0000  1.0000  0.0000  0.0000  0.0000  0.0000  0.0000      0.0000  0.0000  0.0000  0.0000  0.0000  0.0000  0.0000  0.0000  0.0000  0.0000
  o =  0.7122  v =  0.0000  0.0000  0.0000  1.0000  0.0000  0.0000  0.0000  0.0000  0.0000  0.0000      0.0000  0.0000  0.0000  0.0000  0.0000  0.0000  0.0000  0.0000  0.0000  0.0000
  o =  0.7122  v =  0.0000  0.0000  1.0000  0.0000  0.0000  0.0000  0.0000  0.0000  0.0000  0.0000      0.0000  0.0000  0.0000  0.0000  0.0000  0.0000  0.0000  0.0000  0.0000  0.0000
 
atom =  25  type =  3  l = 1  LDA+U# 1
 
 onsite density matrix
 
spin component  1
 
  0.5553  0.0000  0.0000
  0.0000  0.5553  0.0000
  0.0000  0.0000  0.5553
 
spin component  2
 
  0.5520  0.0000  0.0000
  0.0000  0.5520  0.0000
  0.0000  0.0000  0.5520
 
 occupancies and eigenvectors
 
  o =  0.5520  v =  0.0000  0.0000  0.0000  1.0000  0.0000  0.0000      0.0000  0.0000  0.0000  0.0000  0.0000  0.0000
  o =  0.5520  v =  0.0000  0.0000  0.0000  0.0000  1.0000  0.0000      0.0000  0.0000  0.0000  0.0000  0.0000  0.0000
  o =  0.5520  v =  0.0000  0.0000  0.0000  0.0000  0.0000  1.0000      0.0000  0.0000  0.0000  0.0000  0.0000  0.0000
  o =  0.5553  v =  1.0000  0.0000  0.0000  0.0000  0.0000  0.0000      0.0000  0.0000  0.0000  0.0000  0.0000  0.0000
  o =  0.5553  v =  0.0000  1.0000  0.0000  0.0000  0.0000  0.0000      0.0000  0.0000  0.0000  0.0000  0.0000  0.0000
  o =  0.5553  v =  0.0000  0.0000  1.0000  0.0000  0.0000  0.0000      0.0000  0.0000  0.0000  0.0000  0.0000  0.0000
 
atom =  26  type =  3  l = 1  LDA+U# 1
 
 onsite density matrix
 
spin component  1
 
  0.5553  0.0000  0.0000
  0.0000  0.5553  0.0000
  0.0000  0.0000  0.5553
 
spin component  2
 
  0.5520  0.0000  0.0000
  0.0000  0.5520  0.0000
  0.0000  0.0000  0.5520
 
 occupancies and eigenvectors
 
  o =  0.5520  v =  0.0000  0.0000  0.0000  1.0000  0.0000  0.0000      0.0000  0.0000  0.0000  0.0000  0.0000  0.0000
  o =  0.5520  v =  0.0000  0.0000  0.0000  0.0000  1.0000  0.0000      0.0000  0.0000  0.0000  0.0000  0.0000  0.0000
  o =  0.5520  v =  0.0000  0.0000  0.0000  0.0000  0.0000  1.0000      0.0000  0.0000  0.0000  0.0000  0.0000  0.0000
  o =  0.5553  v =  1.0000  0.0000  0.0000  0.0000  0.0000  0.0000      0.0000  0.0000  0.0000  0.0000  0.0000  0.0000
  o =  0.5553  v =  0.0000  1.0000  0.0000  0.0000  0.0000  0.0000      0.0000  0.0000  0.0000  0.0000  0.0000  0.0000
  o =  0.5553  v =  0.0000  0.0000  1.0000  0.0000  0.0000  0.0000      0.0000  0.0000  0.0000  0.0000  0.0000  0.0000
 
atom =  27  type =  3  l = 1  LDA+U# 1
 
 onsite density matrix
 
spin component  1
 
  0.5553  0.0000  0.0000
  0.0000  0.5553  0.0000
  0.0000  0.0000  0.5553
 
spin component  2
 
  0.5520  0.0000  0.0000
  0.0000  0.5520  0.0000
  0.0000  0.0000  0.5520
 
 occupancies and eigenvectors
 
  o =  0.5520  v =  0.0000  0.0000  0.0000  1.0000  0.0000  0.0000      0.0000  0.0000  0.0000  0.0000  0.0000  0.0000
  o =  0.5520  v =  0.0000  0.0000  0.0000  0.0000  1.0000  0.0000      0.0000  0.0000  0.0000  0.0000  0.0000  0.0000
  o =  0.5520  v =  0.0000  0.0000  0.0000  0.0000  0.0000  1.0000      0.0000  0.0000  0.0000  0.0000  0.0000  0.0000
  o =  0.5553  v =  1.0000  0.0000  0.0000  0.0000  0.0000  0.0000      0.0000  0.0000  0.0000  0.0000  0.0000  0.0000
  o =  0.5553  v =  0.0000  1.0000  0.0000  0.0000  0.0000  0.0000      0.0000  0.0000  0.0000  0.0000  0.0000  0.0000
  o =  0.5553  v =  0.0000  0.0000  1.0000  0.0000  0.0000  0.0000      0.0000  0.0000  0.0000  0.0000  0.0000  0.0000
 
atom =  28  type =  3  l = 1  LDA+U# 1
 
 onsite density matrix
 
spin component  1
 
  0.5553  0.0000  0.0000
  0.0000  0.5553  0.0000
  0.0000  0.0000  0.5553
 
spin component  2
 
  0.5520  0.0000  0.0000
  0.0000  0.5520  0.0000
  0.0000  0.0000  0.5520
 
 occupancies and eigenvectors
 
  o =  0.5520  v =  0.0000  0.0000  0.0000  1.0000  0.0000  0.0000      0.0000  0.0000  0.0000  0.0000  0.0000  0.0000
  o =  0.5520  v =  0.0000  0.0000  0.0000  0.0000  1.0000  0.0000      0.0000  0.0000  0.0000  0.0000  0.0000  0.0000
  o =  0.5520  v =  0.0000  0.0000  0.0000  0.0000  0.0000  1.0000      0.0000  0.0000  0.0000  0.0000  0.0000  0.0000
  o =  0.5553  v =  1.0000  0.0000  0.0000  0.0000  0.0000  0.0000      0.0000  0.0000  0.0000  0.0000  0.0000  0.0000
  o =  0.5553  v =  0.0000  1.0000  0.0000  0.0000  0.0000  0.0000      0.0000  0.0000  0.0000  0.0000  0.0000  0.0000
  o =  0.5553  v =  0.0000  0.0000  1.0000  0.0000  0.0000  0.0000      0.0000  0.0000  0.0000  0.0000  0.0000  0.0000
 
atom =  29  type =  3  l = 1  LDA+U# 1
 
 onsite density matrix
 
spin component  1
 
  0.5553  0.0000  0.0000
  0.0000  0.5553  0.0000
  0.0000  0.0000  0.5553
 
spin component  2
 
  0.5520  0.0000  0.0000
  0.0000  0.5520  0.0000
  0.0000  0.0000  0.5520
 
 occupancies and eigenvectors
 
  o =  0.5520  v =  0.0000  0.0000  0.0000  1.0000  0.0000  0.0000      0.0000  0.0000  0.0000  0.0000  0.0000  0.0000
  o =  0.5520  v =  0.0000  0.0000  0.0000  0.0000  1.0000  0.0000      0.0000  0.0000  0.0000  0.0000  0.0000  0.0000
  o =  0.5520  v =  0.0000  0.0000  0.0000  0.0000  0.0000  1.0000      0.0000  0.0000  0.0000  0.0000  0.0000  0.0000
  o =  0.5553  v =  1.0000  0.0000  0.0000  0.0000  0.0000  0.0000      0.0000  0.0000  0.0000  0.0000  0.0000  0.0000
  o =  0.5553  v =  0.0000  1.0000  0.0000  0.0000  0.0000  0.0000      0.0000  0.0000  0.0000  0.0000  0.0000  0.0000
  o =  0.5553  v =  0.0000  0.0000  1.0000  0.0000  0.0000  0.0000      0.0000  0.0000  0.0000  0.0000  0.0000  0.0000
 
atom =  30  type =  3  l = 1  LDA+U# 1
 
 onsite density matrix
 
spin component  1
 
  0.5553  0.0000  0.0000
  0.0000  0.5553  0.0000
  0.0000  0.0000  0.5553
 
spin component  2
 
  0.5520  0.0000  0.0000
  0.0000  0.5520  0.0000
  0.0000  0.0000  0.5520
 
 occupancies and eigenvectors
 
  o =  0.5520  v =  0.0000  0.0000  0.0000  1.0000  0.0000  0.0000      0.0000  0.0000  0.0000  0.0000  0.0000  0.0000
  o =  0.5520  v =  0.0000  0.0000  0.0000  0.0000  1.0000  0.0000      0.0000  0.0000  0.0000  0.0000  0.0000  0.0000
  o =  0.5520  v =  0.0000  0.0000  0.0000  0.0000  0.0000  1.0000      0.0000  0.0000  0.0000  0.0000  0.0000  0.0000
  o =  0.5553  v =  1.0000  0.0000  0.0000  0.0000  0.0000  0.0000      0.0000  0.0000  0.0000  0.0000  0.0000  0.0000
  o =  0.5553  v =  0.0000  1.0000  0.0000  0.0000  0.0000  0.0000      0.0000  0.0000  0.0000  0.0000  0.0000  0.0000
  o =  0.5553  v =  0.0000  0.0000  1.0000  0.0000  0.0000  0.0000      0.0000  0.0000  0.0000  0.0000  0.0000  0.0000
 
atom =  31  type =  3  l = 1  LDA+U# 1
 
 onsite density matrix
 
spin component  1
 
  0.5553  0.0000  0.0000
  0.0000  0.5553  0.0000
  0.0000  0.0000  0.5553
 
spin component  2
 
  0.5520  0.0000  0.0000
  0.0000  0.5520  0.0000
  0.0000  0.0000  0.5520
 
 occupancies and eigenvectors
 
  o =  0.5520  v =  0.0000  0.0000  0.0000  1.0000  0.0000  0.0000      0.0000  0.0000  0.0000  0.0000  0.0000  0.0000
  o =  0.5520  v =  0.0000  0.0000  0.0000  0.0000  1.0000  0.0000      0.0000  0.0000  0.0000  0.0000  0.0000  0.0000
[...]
  Total      -4.34017    -4.34005    -4.34008     0.00041     0.00055     0.00003
  in kB     -11.04253   -11.04221   -11.04230     0.00105     0.00139     0.00008
  external pressure =      -11.04 kB  Pullay stress =        0.00 kB


 VOLUME and BASIS-vectors are now :
 -----------------------------------------------------------------------------
  energy-cutoff  :      300.00
  volume of cell :      629.72
      direct lattice vectors                 reciprocal lattice vectors
     8.571360519  0.000000000  0.000000000     0.116667593  0.000000000  0.000000000
     0.000000000  8.571360519  0.000000000     0.000000000  0.116667593  0.000000000
     0.000000000  0.000000000  8.571360519     0.000000000  0.000000000  0.116667593

  length of vectors
     8.571360519  8.571360519  8.571360519     0.116667593  0.116667593  0.116667593


 FORCES acting on ions
    electron-ion (+dipol)            ewald-force                    non-local-force                 convergence-correction
 -----------------------------------------------------------------------------------------------
   0.158E-02 0.368E-03 0.533E-03   0.295E-05 0.295E-05 0.295E-05   0.984E-04 0.243E-04 0.495E-04   -.168E-02 -.398E-03 -.586E-03
   0.194E-02 0.294E-02 0.209E-03   -.144E-03 -.144E-03 -.144E-03   0.851E-04 0.144E-03 -.483E-04   -.190E-02 -.297E-02 -.292E-04
   -.143E-02 -.319E-03 0.560E-03   -.975E-04 -.975E-04 0.295E-05   -.682E-04 -.130E-04 0.465E-04   0.162E-02 0.430E-03 -.608E-03
   -.134E-02 0.432E-03 -.277E-03   -.975E-04 0.295E-05 -.975E-04   -.575E-04 0.166E-04 -.412E-05   0.151E-02 -.453E-03 0.391E-03
   0.187E-02 -.292E-02 -.472E-03   -.144E-03 0.496E-04 0.496E-04   0.738E-04 -.180E-03 -.140E-04   -.182E-02 0.307E-02 0.430E-03
   0.160E-02 -.215E-03 -.349E-03   0.295E-05 -.975E-04 -.975E-04   0.930E-04 0.770E-05 -.596E-05   -.170E-02 0.310E-03 0.464E-03
   -.218E-02 0.284E-02 -.482E-03   0.496E-04 -.144E-03 0.496E-04   -.131E-03 0.146E-03 -.192E-04   0.226E-02 -.286E-02 0.446E-03
   -.207E-02 -.290E-02 0.270E-03   0.496E-04 0.496E-04 -.144E-03   -.122E-03 -.174E-03 -.504E-04   0.215E-02 0.305E-02 -.857E-04
   -.402E-03 0.218E-02 -.585E-03   -.727E-04 -.195E-03 0.318E-05   -.370E-04 0.652E-04 -.283E-04   0.528E-03 -.213E-02 0.636E-03
   -.457E-03 -.164E-02 0.126E-02   -.727E-04 0.318E-05 -.195E-03   -.465E-04 -.418E-04 0.285E-04   0.601E-03 0.175E-02 -.115E-02
   0.185E-02 0.819E-03 -.761E-04   -.195E-03 -.727E-04 0.318E-05   0.396E-04 -.683E-05 -.148E-04   -.176E-02 -.779E-03 0.795E-04
   0.208E-03 0.133E-02 0.308E-03   0.318E-05 -.727E-04 -.195E-03   0.215E-05 0.207E-04 -.134E-04   -.223E-03 -.133E-02 -.110E-03
   0.300E-02 -.243E-02 -.140E-02   -.195E-03 0.318E-05 -.727E-04   0.522E-04 -.878E-04 -.510E-04   -.298E-02 0.259E-02 0.158E-02
   -.107E-02 0.236E-02 -.879E-03   0.318E-05 -.195E-03 -.727E-04   -.527E-04 0.354E-04 -.368E-04   0.115E-02 -.229E-02 0.102E-02
   0.296E-02 0.281E-02 0.976E-03   -.235E-03 -.235E-03 0.123E-03   0.658E-04 0.412E-04 0.493E-04   -.291E-02 -.273E-02 -.119E-02
   0.180E-02 -.115E-02 0.809E-03   -.235E-03 0.123E-03 -.235E-03   0.288E-05 0.131E-05 0.676E-05   -.166E-02 0.107E-02 -.615E-03
   -.131E-02 0.158E-02 0.666E-03   0.123E-03 -.235E-03 -.235E-03   -.143E-04 0.329E-04 -.134E-05   0.124E-02 -.145E-02 -.465E-03
   -.540E-03 -.136E-02 0.214E-04   -.145E-04 -.145E-04 0.180E-03   0.126E-06 -.514E-04 0.423E-05   0.567E-03 0.146E-02 -.202E-03
   0.108E-02 0.183E-02 -.122E-02   -.578E-04 -.578E-04 0.148E-03   0.363E-04 0.503E-04 -.360E-04   -.111E-02 -.189E-02 0.115E-02
   0.677E-03 -.203E-02 0.840E-03   -.145E-04 0.180E-03 -.145E-04   0.382E-04 -.410E-04 0.330E-04   -.735E-03 0.198E-02 -.901E-03
   -.171E-02 -.569E-03 0.402E-03   0.180E-03 -.145E-04 -.145E-04   -.244E-04 0.114E-04 0.140E-04   0.162E-02 0.596E-03 -.417E-03
   0.953E-03 -.214E-02 0.770E-03   -.578E-04 0.148E-03 -.578E-04   0.235E-04 -.587E-04 0.358E-04   -.959E-03 0.213E-02 -.776E-03
   -.276E-02 0.233E-02 0.136E-02   0.148E-03 -.578E-04 -.578E-04   -.819E-04 0.736E-04 0.511E-04   0.281E-02 -.244E-02 -.141E-02
   -.325E-02 -.317E-02 -.226E-02   0.126E-03 0.126E-03 0.126E-03   -.885E-04 -.120E-03 -.108E-03   0.335E-02 0.328E-02 0.232E-02
   0.202E+02 0.202E+02 -.202E+02   -.270E+02 -.270E+02 0.270E+02   0.674E+01 0.674E+01 -.674E+01   0.289E-03 -.696E-04 -.255E-02
   0.202E+02 -.202E+02 0.202E+02   -.270E+02 0.270E+02 -.270E+02   0.674E+01 -.674E+01 0.674E+01   0.498E-03 -.273E-03 0.179E-02
   0.202E+02 -.202E+02 -.202E+02   -.270E+02 0.270E+02 0.270E+02   0.674E+01 -.674E+01 -.674E+01   0.224E-02 -.207E-02 -.133E-02
   -.202E+02 0.202E+02 0.202E+02   0.270E+02 -.270E+02 -.270E+02   -.674E+01 0.674E+01 0.674E+01   -.211E-02 0.533E-03 0.237E-02
   -.202E+02 0.202E+02 -.202E+02   0.270E+02 -.270E+02 0.270E+02   -.674E+01 0.674E+01 -.674E+01   -.222E-02 0.400E-03 -.976E-03
   -.202E+02 -.202E+02 0.202E+02   0.270E+02 0.270E+02 -.270E+02   -.674E+01 -.674E+01 0.674E+01   -.339E-02 -.268E-02 0.256E-02
   -.202E+02 -.202E+02 -.202E+02   0.270E+02 0.270E+02 0.270E+02   -.674E+01 -.674E+01 -.674E+01   -.970E-03 -.183E-02 0.669E-03
   -.202E+02 -.202E+02 -.202E+02   0.270E+02 0.270E+02 0.270E+02   -.674E+01 -.674E+01 -.674E+01   -.216E-02 0.163E-02 -.134E-02
   0.202E+02 0.202E+02 0.202E+02   -.270E+02 -.270E+02 -.270E+02   0.674E+01 0.674E+01 0.674E+01   0.265E-02 0.165E-02 0.124E-02
   -.202E+02 -.202E+02 -.202E+02   0.270E+02 0.270E+02 0.270E+02   -.674E+01 -.674E+01 -.674E+01   0.290E-03 -.326E-02 -.134E-02
   0.202E+02 0.202E+02 0.202E+02   -.270E+02 -.270E+02 -.270E+02   0.674E+01 0.674E+01 0.674E+01   0.792E-03 0.134E-02 0.128E-02
   0.202E+02 0.202E+02 0.202E+02   -.270E+02 -.270E+02 -.270E+02   0.674E+01 0.674E+01 0.674E+01   0.197E-02 0.308E-02 0.336E-02
   -.202E+02 -.202E+02 -.202E+02   0.270E+02 0.270E+02 0.270E+02   -.674E+01 -.674E+01 -.674E+01   -.251E-02 -.116E-02 -.332E-02
   0.202E+02 0.202E+02 0.202E+02   -.270E+02 -.270E+02 -.270E+02   0.674E+01 0.674E+01 0.674E+01   -.836E-04 -.144E-02 -.575E-03
   -.202E+02 0.202E+02 0.202E+02   0.270E+02 -.270E+02 -.270E+02   -.674E+01 0.674E+01 0.674E+01   -.271E-02 -.158E-02 0.134E-02
   0.202E+02 -.202E+02 0.202E+02   -.270E+02 0.270E+02 -.270E+02   0.674E+01 -.674E+01 0.674E+01   -.160E-02 -.320E-02 0.967E-03
   -.202E+02 0.202E+02 0.202E+02   0.270E+02 -.270E+02 -.270E+02   -.674E+01 0.674E+01 0.674E+01   -.111E-02 0.222E-02 -.115E-02
   0.202E+02 0.202E+02 -.202E+02   -.270E+02 -.270E+02 0.270E+02   0.674E+01 0.674E+01 -.674E+01   -.180E-02 0.284E-02 -.947E-03
   -.202E+02 0.202E+02 -.202E+02   0.270E+02 -.270E+02 0.270E+02   -.674E+01 0.674E+01 -.674E+01   -.478E-03 0.274E-02 -.284E-02
   -.202E+02 -.202E+02 0.202E+02   0.270E+02 0.270E+02 -.270E+02   -.674E+01 -.674E+01 0.674E+01   -.287E-03 -.338E-02 0.219E-02
   0.202E+02 -.202E+02 0.202E+02   -.270E+02 0.270E+02 -.270E+02   0.674E+01 -.674E+01 0.674E+01   0.225E-02 -.293E-02 -.322E-03
   0.202E+02 0.202E+02 -.202E+02   -.270E+02 -.270E+02 0.270E+02   0.674E+01 0.674E+01 -.674E+01   0.341E-02 -.976E-03 -.227E-02
   0.202E+02 -.202E+02 -.202E+02   -.270E+02 0.270E+02 0.270E+02   0.674E+01 -.674E+01 -.674E+01   0.914E-03 -.628E-03 -.207E-02
   -.202E+02 -.202E+02 0.202E+02   0.270E+02 0.270E+02 -.270E+02   -.674E+01 -.674E+01 0.674E+01   -.270E-02 -.660E-04 0.866E-03
   0.202E+02 -.202E+02 -.202E+02   -.270E+02 0.270E+02 0.270E+02   0.674E+01 -.674E+01 -.674E+01   0.252E-02 -.400E-02 -.233E-02
   -.202E+02 0.202E+02 -.202E+02   0.270E+02 -.270E+02 0.270E+02   -.674E+01 0.674E+01 -.674E+01   -.412E-02 0.302E-02 -.175E-02
   -.202E+02 0.202E+02 0.202E+02   0.270E+02 -.270E+02 -.270E+02   -.674E+01 0.674E+01 0.674E+01   -.736E-03 0.412E-02 0.204E-02
   0.202E+02 -.202E+02 0.202E+02   -.270E+02 0.270E+02 -.270E+02   0.674E+01 -.674E+01 0.674E+01   0.413E-02 -.213E-03 0.284E-02
   0.202E+02 0.202E+02 -.202E+02   -.270E+02 -.270E+02 0.270E+02   0.674E+01 0.674E+01 -.674E+01   0.271E-02 0.350E-02 -.893E-03
   0.202E+02 -.202E+02 -.202E+02   -.270E+02 0.270E+02 0.270E+02   0.674E+01 -.674E+01 -.674E+01   0.947E-03 0.141E-02 0.112E-02
   -.202E+02 0.202E+02 -.202E+02   0.270E+02 -.270E+02 0.270E+02   -.674E+01 0.674E+01 -.674E+01   0.153E-02 0.422E-03 0.283E-03
   -.202E+02 -.202E+02 0.202E+02   0.270E+02 0.270E+02 -.270E+02   -.674E+01 -.674E+01 0.674E+01   0.175E-02 0.825E-03 0.996E-03
 -----------------------------------------------------------------------------------------------
   0.283E-03 0.183E-03 0.182E-03   0.213E-13 -.263E-12 -.167E-12   -.152E-03 -.135E-03 -.772E-04   -.131E-03 -.442E-04 -.953E-04
 
 
 POSITION                                       TOTAL-FORCE (eV/Angst)
 -----------------------------------------------------------------------------------
      7.49994      7.49994      7.49994        -0.000003     -0.000003      0.000000
      1.07142      1.07142      1.07142        -0.000019     -0.000028     -0.000013
      3.21426      3.21426      7.49994         0.000021      0.000000      0.000001
      3.21426      7.49994      3.21426         0.000019     -0.000002      0.000012
      1.07142      5.35710      5.35710        -0.000022      0.000023     -0.000007
      7.49994      3.21426      3.21426        -0.000006      0.000004      0.000011
      5.35710      1.07142      5.35710        -0.000001     -0.000026     -0.000005
      5.35710      5.35710      1.07142         0.000002      0.000020     -0.000011
      2.14284      0.00000      6.42852         0.000016     -0.000087      0.000026
      2.14284      6.42852      0.00000         0.000024      0.000071     -0.000058
      0.00000      2.14284      6.42852        -0.000073     -0.000039     -0.000008
      6.42852      2.14284      0.00000        -0.000010     -0.000050     -0.000011
      0.00000      6.42852      2.14284        -0.000123      0.000083      0.000057
      6.42852      0.00000      2.14284         0.000033     -0.000091      0.000031
      0.00000      0.00000      4.28568        -0.000114     -0.000112     -0.000039
      0.00000      4.28568      0.00000        -0.000087      0.000040     -0.000035
      4.28568      0.00000      0.00000         0.000040     -0.000071     -0.000035
      6.42852      6.42852      4.28568         0.000013      0.000029      0.000004
      2.14284      2.14284      4.28568        -0.000049     -0.000072      0.000042
      6.42852      4.28568      6.42852        -0.000034      0.000083     -0.000043
      4.28568      6.42852      6.42852         0.000065      0.000024     -0.000016
      2.14284      4.28568      2.14284        -0.000041      0.000079     -0.000028
      4.28568      2.14284      2.14284         0.000111     -0.000089     -0.000053
      4.28568      4.28568      4.28568         0.000134      0.000116      0.000078
      0.07377      0.07377      6.35475        -0.042247     -0.042184      0.042162
      0.07377      6.35475      0.07377        -0.042169      0.042172     -0.042248
      2.21661      8.49759      8.49759        -0.042134      0.042151      0.042230
      6.35475      0.07377      0.07377         0.042143     -0.042199     -0.042250
      8.49759      2.21661      8.49759         0.042199     -0.042154      0.042168
      8.49759      8.49759      2.21661         0.042234      0.042217     -0.042122
      2.06907      2.06907      6.35475         0.042172      0.042241      0.042206
      2.06907      6.35475      2.06907         0.042238      0.042250      0.042155
      2.21661      6.50229      6.50229        -0.042127     -0.042226     -0.042145
      6.35475      2.06907      2.06907         0.042208      0.042244      0.042196
      6.50229      2.21661      6.50229        -0.042151     -0.042216     -0.042184
      6.50229      6.50229      2.21661        -0.042204     -0.042218     -0.042197
      6.35475      6.35475      6.35475         0.042126      0.042221      0.042217
      2.21661      2.21661      2.21661        -0.042227     -0.042267     -0.042214
      2.06907      0.07377      4.35945         0.042151     -0.042207     -0.042225
      0.07377      2.06907      4.35945        -0.042214      0.042159     -0.042171
      2.06907      4.35945      0.07377         0.042152     -0.042150     -0.042246
      0.07377      4.35945      2.06907        -0.042240     -0.042230      0.042146
      4.21191      6.50229      8.49759         0.042161     -0.042140      0.042144
      4.21191      8.49759      6.50229         0.042230      0.042132     -0.042131
      4.35945      2.06907      0.07377        -0.042187      0.042139     -0.042208
      4.35945      0.07377      2.06907        -0.042237     -0.042207      0.042129
      6.50229      4.21191      8.49759        -0.042139      0.042197      0.042215
      8.49759      4.21191      6.50229         0.042220      0.042165     -0.042135
      6.50229      8.49759      4.21191        -0.042121      0.042209      0.042230
      8.49759      6.50229      4.21191         0.042211     -0.042121      0.042218
      6.35475      4.35945      4.35945         0.042124     -0.042203     -0.042192
      4.35945      6.35475      4.35945        -0.042206      0.042133     -0.042115
      4.35945      4.35945      6.35475        -0.042203     -0.042112      0.042123
      2.21661      4.21191      4.21191        -0.042157      0.042227      0.042265
      4.21191      2.21661      4.21191         0.042231     -0.042169      0.042238
      4.21191      4.21191      2.21661         0.042263      0.042243     -0.042158
 -----------------------------------------------------------------------------------
    total drift:                                0.000000      0.000003      0.000009


--------------------------------------------------------------------------------------------------------


    POTLOK:  cpu time    0.78: real time    1.46


--------------------------------------------------------------------------------------------------------


 writing wavefunctions
     LOOP+:  cpu time  328.21: real time  640.91
    4ORBIT:  cpu time    0.00: real time    0.00
 


 total charge     
 
# of ion     s       p       d       tot
----------------------------------------
  1        0.428   0.433   9.975  10.836
  2        0.428   0.433   9.975  10.836
  3        0.428   0.433   9.975  10.836
  4        0.428   0.433   9.975  10.836
  5        0.428   0.433   9.975  10.836
  6        0.428   0.433   9.975  10.836
  7        0.428   0.433   9.975  10.836
  8        0.428   0.433   9.975  10.836
  9        0.334   0.434   6.961   7.728
 10        0.334   0.434   6.961   7.728
 11        0.334   0.434   6.961   7.728
 12        0.334   0.434   6.961   7.728
 13        0.334   0.434   6.961   7.728
 14        0.334   0.434   6.961   7.728
 15        0.334   0.434   6.961   7.728
 16        0.334   0.434   6.961   7.728
 17        0.334   0.434   6.961   7.728
 18        0.334   0.434   6.961   7.728
 19        0.334   0.434   6.961   7.728
 20        0.334   0.434   6.961   7.728
 21        0.334   0.434   6.961   7.728
 22        0.334   0.434   6.961   7.728
 23        0.334   0.434   6.961   7.728
 24        0.334   0.434   6.961   7.728
 25        1.772   4.100   0.000   5.873
 26        1.772   4.100   0.000   5.873
 27        1.772   4.100   0.000   5.873
 28        1.772   4.100   0.000   5.873
 29        1.772   4.100   0.000   5.873
 30        1.772   4.100   0.000   5.873
 31        1.772   4.100   0.000   5.873
 32        1.772   4.100   0.000   5.873
 33        1.772   4.100   0.000   5.873
 34        1.772   4.100   0.000   5.873
 35        1.772   4.100   0.000   5.873
 36        1.772   4.100   0.000   5.873
 37        1.772   4.100   0.000   5.873
 38        1.772   4.100   0.000   5.873
 39        1.772   4.100   0.000   5.873
 40        1.772   4.100   0.000   5.873
 41        1.772   4.100   0.000   5.873
 42        1.772   4.100   0.000   5.873
 43        1.772   4.100   0.000   5.873
 44        1.772   4.100   0.000   5.873
 45        1.772   4.100   0.000   5.873
 46        1.772   4.100   0.000   5.873
 47        1.772   4.100   0.000   5.873
 48        1.772   4.100   0.000   5.873
 49        1.772   4.100   0.000   5.873
 50        1.772   4.100   0.000   5.873
 51        1.772   4.100   0.000   5.873
 52        1.772   4.100   0.000   5.873
 53        1.772   4.100   0.000   5.873
 54        1.772   4.100   0.000   5.873
 55        1.772   4.100   0.000   5.873
 56        1.772   4.100   0.000   5.873
------------------------------------------------
tot       65.477 141.620 191.178 398.274
 


 magnetization (x)
 
# of ion     s       p       d       tot
----------------------------------------
  1        0.000   0.000   0.001   0.000
  2        0.000   0.000   0.001   0.000
  3        0.000   0.000   0.001   0.000
  4        0.000   0.000   0.001   0.000
  5        0.000   0.000   0.001   0.000
  6        0.000   0.000   0.001   0.000
  7        0.000   0.000   0.001   0.000
  8        0.000   0.000   0.001   0.000
  9        0.000   0.000   0.033   0.032
 10        0.000   0.000   0.033   0.032
 11        0.000   0.000   0.033   0.032
 12        0.000   0.000   0.033   0.032
 13        0.000   0.000   0.033   0.033
 14        0.000   0.000   0.033   0.033
 15        0.000   0.000   0.033   0.033
 16        0.000   0.000   0.033   0.032
 17        0.000   0.000   0.033   0.033
 18        0.000   0.000   0.033   0.033
 19        0.000   0.000   0.033   0.032
 20        0.000   0.000   0.033   0.032
 21        0.000   0.000   0.033   0.033
 22        0.000   0.000   0.033   0.032
 23        0.000   0.000   0.033   0.032
 24        0.000   0.000   0.033   0.032
 25        0.000   0.016   0.000   0.016
 26        0.000   0.016   0.000   0.016
 27        0.000   0.016   0.000   0.016
 28        0.000   0.016   0.000   0.016
 29        0.000   0.016   0.000   0.016
 30        0.000   0.016   0.000   0.016
 31        0.000   0.016   0.000   0.016
 32        0.000   0.016   0.000   0.016
 33        0.000   0.016   0.000   0.016
 34        0.000   0.016   0.000   0.016
 35        0.000   0.016   0.000   0.016
 36        0.000   0.016   0.000   0.016
 37        0.000   0.016   0.000   0.016
 38        0.000   0.016   0.000   0.016
 39        0.000   0.016   0.000   0.016
 40        0.000   0.016   0.000   0.016
 41        0.000   0.016   0.000   0.016
 42        0.000   0.016   0.000   0.016
 43        0.000   0.016   0.000   0.016
 44        0.000   0.016   0.000   0.016
 45        0.000   0.016   0.000   0.016
 46        0.000   0.016   0.000   0.016
 47        0.000   0.016   0.000   0.016
 48        0.000   0.016   0.000   0.016
 49        0.000   0.016   0.000   0.016
 50        0.000   0.016   0.000   0.016
 51        0.000   0.016   0.000   0.016
 52        0.000   0.016   0.000   0.016
 53        0.000   0.016   0.000   0.016
 54        0.000   0.016   0.000   0.016
 55        0.000   0.016   0.000   0.016
 56        0.000   0.016   0.000   0.016
------------------------------------------------
tot       -0.003   0.498   0.532   1.027
 

 total amount of memory used by VASP on root node 101453. kBytes
========================================================================

   base      :    30000. kBytes
   nonlr-proj:    20846. kBytes
   fftplans  :     9790. kBytes
   grid      :    22680. kBytes
   one-center:      870. kBytes
   wavefun   :    17267. kBytes
 
  
  
 General timing and accounting informations for this job:
 ========================================================
  
                  Total CPU time used (sec):      352.685
                            User time (sec):      303.918
                          System time (sec):       48.768
                         Elapsed time (sec):      672.482
  
                   Maximum memory used (kb):           0.
                   Average memory used (kb):           0.
  
                          Minor page faults:        45784
                          Major page faults:         4435
                 Voluntary context switches:        11780
