 running on   16 nodes
 distr:  one band on    2 nodes,    8 groups
 vasp.5.2.2 15Apr09 complex 
 POSCAR found :  3 types and   56 ions
 LDA part: xc-table for Pade appr. of Perdew
 POSCAR, INCAR and KPOINTS ok, starting setup
 WARNING: small aliasing (wrap around) errors must be expected
 FFT: planning ...(           1 )
 reading WAVECAR
 WARNING: random wavefunctions but no delay for mixing, default for NELMDL
 entering main loop
       N       E                     dE             d eps       ncg     rms          rms(c)
DAV:   1     0.452222531513E+04    0.45222E+04   -0.14315E+05  4232   0.133E+03
DAV:   2     0.628562691125E+03   -0.38937E+04   -0.36963E+04  4224   0.437E+02
DAV:   3     0.911552729889E+02   -0.53741E+03   -0.50038E+03  4400   0.171E+02
DAV:   4     0.645430140250E+02   -0.26612E+02   -0.25959E+02  4768   0.408E+01
DAV:   5     0.639719316944E+02   -0.57108E+00   -0.56776E+00  4720   0.538E+00    0.449E+01
RMM:   6     0.824998659153E+02    0.18528E+02   -0.24951E+02  4280   0.343E+01    0.198E+01
RMM:   7     0.875378458740E+02    0.50380E+01   -0.14053E+01  4359   0.879E+00    0.996E+00
RMM:   8     0.843326220210E+02   -0.32052E+01   -0.23785E+00  4481   0.462E+00    0.244E+00
RMM:   9     0.841605546060E+02   -0.17207E+00   -0.45498E-01  4494   0.171E+00    0.605E-01
RMM:  10     0.841563653005E+02   -0.41893E-02   -0.29354E-02  4919   0.371E-01    0.131E-01
RMM:  11     0.841559890995E+02   -0.37620E-03   -0.24263E-03  4811   0.130E-01    0.496E-02
RMM:  12     0.841559429586E+02   -0.46141E-04   -0.32335E-04  5126   0.324E-02    0.257E-02
RMM:  13     0.841559034390E+02   -0.39520E-04   -0.10695E-04  4397   0.213E-02    0.125E-02
RMM:  14     0.841558986992E+02   -0.47398E-05   -0.85675E-06  2675   0.680E-03
   1 F= 0.84155899E+02 E0= 0.84155899E+02  d E =-.161878E-17  mag=     0.0000
 writing wavefunctions

 ----------------------------------------------------------------------------- 
|                                                                             |
|           W    W    AA    RRRRR   N    N  II  N    N   GGGG   !!!           |
|           W    W   A  A   R    R  NN   N  II  NN   N  G    G  !!!           |
|           W    W  A    A  R    R  N N  N  II  N N  N  G       !!!           |
|           W WW W  AAAAAA  RRRRR   N  N N  II  N  N N  G  GGG   !            |
|           WW  WW  A    A  R   R   N   NN  II  N   NN  G    G                |
|           W    W  A    A  R    R  N    N  II  N    N   GGGG   !!!           |
|                                                                             |
|      The partial DOS and the PROCAR file are not evaluated for NPAR/=1      |
|      please rerun with NPAR=1                                               |
|                                                                             |
 ----------------------------------------------------------------------------- 

