 vasp.5.2.2 15Apr09 complex 
 executed on             LinuxPgi date 2009.12.30  00:31:16
 running on    8 nodes
 distr:  one band on    1 nodes,    8 groups


--------------------------------------------------------------------------------------------------------


 INCAR:
 POTCAR:   PAW_PBE Zn 06Sep2000                   
 POTCAR:   PAW_PBE O 08Apr2002                    
 POTCAR:   PAW_PBE Zn 06Sep2000                   
   VRHFIN =Zn: d10 p2                                                           
   LEXCH  = PE                                                                  
   EATOM  =  1749.0928 eV,  128.5547 Ry                                         
                                                                                
   TITEL  = PAW_PBE Zn 06Sep2000                                                
   LULTRA =        F    use ultrasoft PP ?                                      
   IUNSCR =        1    unscreen: 0-lin 1-nonlin 2-no                           
   RPACOR =    2.000    partial core radius                                     
   POMASS =   65.390; ZVAL   =   12.000    mass and valenz                      
   RCORE  =    2.300    outmost cutoff radius                                   
   RWIGS  =    2.400; RWIGS  =    1.270    wigner-seitz radius (au A)           
   ENMAX  =  276.727; ENMIN  =  207.545 eV                                      
   RCLOC  =    1.828    cutoff for local pot                                    
   LCOR   =        T    correct aug charges                                     
   LPAW   =        T    paw PP                                                  
   EAUG   =  575.892                                                            
   DEXC   =    -.003                                                            
   RMAX   =    2.772    core radius for proj-oper                               
   RAUG   =    1.300    factor for augmentation sphere                          
   RDEP   =    2.324    radius for radial grids                                 
   QCUT   =   -4.510; QGAM   =    9.020    optimization parameters              
                                                                                
   Description                                                                  
     l     E      TYP  RCUT    TYP  RCUT                                        
     2   .000     23  2.300                                                     
     2   .000     23  2.300                                                     
     0   .000     23  2.300                                                     
     0   .000     23  2.300                                                     
     1  -.200     23  2.300                                                     
     1   .000     23  2.300                                                     
     3   .000      7   .000                                                     
  local pseudopotential read in
  partial core-charges read in
  atomic valenz-charges read in
  non local Contribution for L=            2  read in
    real space projection operators read in
  non local Contribution for L=            2  read in
    real space projection operators read in
  non local Contribution for L=            0  read in
    real space projection operators read in
  non local Contribution for L=            0  read in
    real space projection operators read in
  non local Contribution for L=            1  read in
    real space projection operators read in
  non local Contribution for L=            1  read in
    real space projection operators read in
    PAW grid and wavefunctions read in

   number of l-projection  operators is LMAX  =            6
   number of lm-projection operators is LMMAX =           18

 POTCAR:   PAW_PBE O 08Apr2002                    
   VRHFIN =O: s2p4                                                              
   LEXCH  = PE                                                                  
   EATOM  =   432.3788 eV,   31.7789 Ry                                         
                                                                                
   TITEL  = PAW_PBE O 08Apr2002                                                 
   LULTRA =        F    use ultrasoft PP ?                                      
   IUNSCR =        0    unscreen: 0-lin 1-nonlin 2-no                           
   RPACOR =     .000    partial core radius                                     
   POMASS =   16.000; ZVAL   =    6.000    mass and valenz                      
   RCORE  =    1.520    outmost cutoff radius                                   
   RWIGS  =    1.550; RWIGS  =     .820    wigner-seitz radius (au A)           
   ENMAX  =  400.000; ENMIN  =  300.000 eV                                      
   ICORE  =        2    local potential                                         
   LCOR   =        T    correct aug charges                                     
   LPAW   =        T    paw PP                                                  
   EAUG   =  605.392                                                            
   DEXC   =     .000                                                            
   RMAX   =    2.264    core radius for proj-oper                               
   RAUG   =    1.300    factor for augmentation sphere                          
   RDEP   =    1.550    radius for radial grids                                 
   QCUT   =   -5.520; QGAM   =   11.041    optimization parameters              
                                                                                
   Description                                                                  
     l     E      TYP  RCUT    TYP  RCUT                                        
     0   .000     23  1.200                                                     
     0  -.700     23  1.200                                                     
     1   .000     23  1.520                                                     
     1   .600     23  1.520                                                     
     2   .000      7  1.500                                                     
  local pseudopotential read in
  atomic valenz-charges read in
  non local Contribution for L=            0  read in
    real space projection operators read in
  non local Contribution for L=            0  read in
    real space projection operators read in
  non local Contribution for L=            1  read in
    real space projection operators read in
  non local Contribution for L=            1  read in
    real space projection operators read in
    PAW grid and wavefunctions read in

   number of l-projection  operators is LMAX  =            4
   number of lm-projection operators is LMMAX =            8

 PAW_PBE Zn 06Sep2000                   :
 energy of atom  1       EATOM=-1749.0928
 kinetic energy error for atom=    0.0107 (will be added to EATOM!!)
 PAW_PBE O 08Apr2002                    :
 energy of atom  2       EATOM= -432.3788
 kinetic energy error for atom=    0.1156 (will be added to EATOM!!)


 POSCAR: POSCAR created by SUPERPOSCAR           
  positions in direct lattice
  No initial velocities read in
 exchange correlation table for  LEXCH =        8
   RHO(1)=    0.500       N(1)  =     2000
   RHO(2)=  100.500       N(2)  =     4000



--------------------------------------------------------------------------------------------------------


 ion  position               nearest neighbor table
   1  0.000  0.000  1.000 -   3 1.985   3 1.985   3 1.985   4 1.995
   2  0.333  0.667  0.500 -   4 1.985   4 1.985   4 1.985   3 1.995
   3  0.333  0.667  0.880 -   1 1.985   1 1.985   1 1.985   2 1.995
   4  0.000  0.000  0.380 -   2 1.985   2 1.985   2 1.985   1 1.995

  LATTYP: Found a hexagonal cell.
 ALAT       =     3.2605400000
 C/A-ratio  =     1.6100972000
  
  Lattice vectors:
  
 A1 = (   1.6302700000,  -2.8237104577,   0.0000000000)
 A2 = (   1.6302700000,   2.8237104577,   0.0000000000)
 A3 = (   0.0000000000,   0.0000000000,   5.2497863245)
 Subroutine PRICEL returns:
 Original cell was already a primitive cell.
 

Analysis of symmetry for initial positions (statically):

 Routine SETGRP: Setting up the symmetry group for a 
 hexagonal supercell.


 Subroutine GETGRP returns: Found 12 space group operations
 (whereof  6 operations were pure point group operations)
 out of a pool of 24 trial point group operations.


The static configuration has the point symmetry C_3v.
 The point group associated with its full space group is C_6v.

Analysis of symmetry for dynamics (positions and initial velocities):

 Subroutine DYNSYM returns: Found 12 space group operations
 (whereof  6 operations were pure point group operations)
 out of a pool of 12 trial space group operations
 (whereof  6 operations were pure point group operations)
 and found also     1 'primitive' translations


The dynamic configuration has the point symmetry C_3v.
 The point group associated with its full space group is C_6v.


 KPOINTS: Automatic generation                    

Automatic generation of k-mesh.
 
 Subroutine IBZKPT returns following result:
 ===========================================
 
 Found     56 irreducible k-points:
 
 Following reciprocal coordinates:
            Coordinates               Weight
  0.000000  0.000000  0.000000      1.000000
  0.100000  0.000000  0.000000      6.000000
  0.200000  0.000000  0.000000      6.000000
  0.300000  0.000000  0.000000      6.000000
  0.400000  0.000000  0.000000      6.000000
  0.500000  0.000000  0.000000      3.000000
  0.100000  0.100000  0.000000      6.000000
  0.200000  0.100000  0.000000     12.000000
  0.300000  0.100000  0.000000     12.000000
  0.400000  0.100000  0.000000     12.000000
  0.200000  0.200000  0.000000      6.000000
  0.300000  0.200000  0.000000     12.000000
  0.400000  0.200000  0.000000      6.000000
  0.300000  0.300000  0.000000      6.000000
  0.000000  0.000000  0.166667      2.000000
  0.100000  0.000000  0.166667     12.000000
  0.200000  0.000000  0.166667     12.000000
  0.300000  0.000000  0.166667     12.000000
  0.400000  0.000000  0.166667     12.000000
  0.500000  0.000000  0.166667      6.000000
  0.100000  0.100000  0.166667     12.000000
  0.200000  0.100000  0.166667     24.000000
  0.300000  0.100000  0.166667     24.000000
  0.400000  0.100000  0.166667     24.000000
  0.200000  0.200000  0.166667     12.000000
  0.300000  0.200000  0.166667     24.000000
  0.400000  0.200000  0.166667     12.000000
  0.300000  0.300000  0.166667     12.000000
  0.000000  0.000000  0.333333      2.000000
  0.100000  0.000000  0.333333     12.000000
  0.200000  0.000000  0.333333     12.000000
  0.300000  0.000000  0.333333     12.000000
  0.400000  0.000000  0.333333     12.000000
  0.500000  0.000000  0.333333      6.000000
  0.100000  0.100000  0.333333     12.000000
  0.200000  0.100000  0.333333     24.000000
  0.300000  0.100000  0.333333     24.000000
  0.400000  0.100000  0.333333     24.000000
  0.200000  0.200000  0.333333     12.000000
  0.300000  0.200000  0.333333     24.000000
  0.400000  0.200000  0.333333     12.000000
  0.300000  0.300000  0.333333     12.000000
  0.000000  0.000000  0.500000      1.000000
  0.100000  0.000000  0.500000      6.000000
  0.200000  0.000000  0.500000      6.000000
  0.300000  0.000000  0.500000      6.000000
  0.400000  0.000000  0.500000      6.000000
  0.500000  0.000000  0.500000      3.000000
  0.100000  0.100000  0.500000      6.000000
  0.200000  0.100000  0.500000     12.000000
  0.300000  0.100000  0.500000     12.000000
  0.400000  0.100000  0.500000     12.000000
  0.200000  0.200000  0.500000      6.000000
  0.300000  0.200000  0.500000     12.000000
  0.400000  0.200000  0.500000      6.000000
  0.300000  0.300000  0.500000      6.000000
 
 Following cartesian coordinates:
            Coordinates               Weight
  0.000000  0.000000  0.000000      1.000000
  0.100000 -0.057735  0.000000      6.000000
  0.200000 -0.115470  0.000000      6.000000
  0.300000 -0.173205  0.000000      6.000000
  0.400000 -0.230940  0.000000      6.000000
  0.500000 -0.288675  0.000000      3.000000
  0.200000  0.000000  0.000000      6.000000
  0.300000 -0.057735  0.000000     12.000000
  0.400000 -0.115470  0.000000     12.000000
  0.500000 -0.173205  0.000000     12.000000
  0.400000  0.000000  0.000000      6.000000
  0.500000 -0.057735  0.000000     12.000000
  0.600000 -0.115470  0.000000      6.000000
  0.600000  0.000000  0.000000      6.000000
  0.000000  0.000000  0.103513      2.000000
  0.100000 -0.057735  0.103513     12.000000
  0.200000 -0.115470  0.103513     12.000000
  0.300000 -0.173205  0.103513     12.000000
  0.400000 -0.230940  0.103513     12.000000
  0.500000 -0.288675  0.103513      6.000000
  0.200000  0.000000  0.103513     12.000000
  0.300000 -0.057735  0.103513     24.000000
  0.400000 -0.115470  0.103513     24.000000
  0.500000 -0.173205  0.103513     24.000000
  0.400000  0.000000  0.103513     12.000000
  0.500000 -0.057735  0.103513     24.000000
  0.600000 -0.115470  0.103513     12.000000
  0.600000  0.000000  0.103513     12.000000
  0.000000  0.000000  0.207027      2.000000
  0.100000 -0.057735  0.207027     12.000000
  0.200000 -0.115470  0.207027     12.000000
  0.300000 -0.173205  0.207027     12.000000
  0.400000 -0.230940  0.207027     12.000000
  0.500000 -0.288675  0.207027      6.000000
  0.200000  0.000000  0.207027     12.000000
  0.300000 -0.057735  0.207027     24.000000
  0.400000 -0.115470  0.207027     24.000000
  0.500000 -0.173205  0.207027     24.000000
  0.400000  0.000000  0.207027     12.000000
  0.500000 -0.057735  0.207027     24.000000
  0.600000 -0.115470  0.207027     12.000000
  0.600000  0.000000  0.207027     12.000000
  0.000000  0.000000  0.310540      1.000000
  0.100000 -0.057735  0.310540      6.000000
  0.200000 -0.115470  0.310540      6.000000
  0.300000 -0.173205  0.310540      6.000000
  0.400000 -0.230940  0.310540      6.000000
  0.500000 -0.288675  0.310540      3.000000
  0.200000  0.000000  0.310540      6.000000
  0.300000 -0.057735  0.310540     12.000000
  0.400000 -0.115470  0.310540     12.000000
  0.500000 -0.173205  0.310540     12.000000
  0.400000  0.000000  0.310540      6.000000
  0.500000 -0.057735  0.310540     12.000000
  0.600000 -0.115470  0.310540      6.000000
  0.600000  0.000000  0.310540      6.000000
 
 
 Subroutine IBZKPT_HF returns following result:
 ==============================================
 
 Found    600 k-points in 1st BZ
 the following    600 k-points will be used (e.g. in the exchange kernel)
 Following reciprocal coordinates:   # in IRBZ
  0.000000  0.000000  0.000000       1
  0.100000  0.000000  0.000000       2
  0.200000  0.000000  0.000000       3
  0.300000  0.000000  0.000000       4
  0.400000  0.000000  0.000000       5
  0.500000  0.000000  0.000000       6
  0.100000  0.100000  0.000000       7
  0.200000  0.100000  0.000000       8
  0.300000  0.100000  0.000000       9
  0.400000  0.100000  0.000000      10
  0.200000  0.200000  0.000000      11
  0.300000  0.200000  0.000000      12
  0.400000  0.200000  0.000000      13
  0.300000  0.300000  0.000000      14
  0.000000  0.000000  0.166667      15
  0.100000  0.000000  0.166667      16
  0.200000  0.000000  0.166667      17
  0.300000  0.000000  0.166667      18
  0.400000  0.000000  0.166667      19
  0.500000  0.000000  0.166667      20
  0.100000  0.100000  0.166667      21
  0.200000  0.100000  0.166667      22
  0.300000  0.100000  0.166667      23
  0.400000  0.100000  0.166667      24
  0.200000  0.200000  0.166667      25
  0.300000  0.200000  0.166667      26
  0.400000  0.200000  0.166667      27
  0.300000  0.300000  0.166667      28
  0.000000  0.000000  0.333333      29
  0.100000  0.000000  0.333333      30
  0.200000  0.000000  0.333333      31
  0.300000  0.000000  0.333333      32
  0.400000  0.000000  0.333333      33
  0.500000  0.000000  0.333333      34
  0.100000  0.100000  0.333333      35
  0.200000  0.100000  0.333333      36
  0.300000  0.100000  0.333333      37
  0.400000  0.100000  0.333333      38
  0.200000  0.200000  0.333333      39
  0.300000  0.200000  0.333333      40
  0.400000  0.200000  0.333333      41
  0.300000  0.300000  0.333333      42
  0.000000  0.000000  0.500000      43
  0.100000  0.000000  0.500000      44
  0.200000  0.000000  0.500000      45
  0.300000  0.000000  0.500000      46
  0.400000  0.000000  0.500000      47
  0.500000  0.000000  0.500000      48
  0.100000  0.100000  0.500000      49
  0.200000  0.100000  0.500000      50
  0.300000  0.100000  0.500000      51
  0.400000  0.100000  0.500000      52
  0.200000  0.200000  0.500000      53
  0.300000  0.200000  0.500000      54
  0.400000  0.200000  0.500000      55
  0.300000  0.300000  0.500000      56
 -0.100000  0.100000  0.000000       2
  0.000000 -0.100000  0.000000       2
  0.000000  0.100000  0.000000       2
 -0.100000  0.000000  0.000000       2
  0.100000 -0.100000  0.000000       2
 -0.200000  0.200000  0.000000       3
  0.000000 -0.200000  0.000000       3
  0.000000  0.200000  0.000000       3
 -0.200000  0.000000  0.000000       3
  0.200000 -0.200000  0.000000       3
 -0.300000  0.300000  0.000000       4
  0.000000 -0.300000  0.000000       4
  0.000000  0.300000  0.000000       4
 -0.300000  0.000000  0.000000       4
  0.300000 -0.300000  0.000000       4
 -0.400000  0.400000  0.000000       5
  0.000000 -0.400000  0.000000       5
  0.000000  0.400000  0.000000       5
 -0.400000  0.000000  0.000000       5
  0.400000 -0.400000  0.000000       5
 -0.500000  0.500000  0.000000       6
  0.000000 -0.500000  0.000000       6
 -0.200000  0.100000  0.000000       7
  0.100000 -0.200000  0.000000       7
 -0.100000  0.200000  0.000000       7
  0.200000 -0.100000  0.000000       7
 -0.100000 -0.100000  0.000000       7
 -0.300000  0.200000  0.000000       8
  0.100000 -0.300000  0.000000       8
 -0.200000  0.300000  0.000000       8
  0.300000 -0.100000  0.000000       8
 -0.100000 -0.200000  0.000000       8
 -0.100000  0.300000  0.000000       8
 -0.200000 -0.100000  0.000000       8
  0.300000 -0.200000  0.000000       8
  0.100000  0.200000  0.000000       8
  0.200000 -0.300000  0.000000       8
 -0.300000  0.100000  0.000000       8
 -0.400000  0.300000  0.000000       9
  0.100000 -0.400000  0.000000       9
 -0.300000  0.400000  0.000000       9
  0.400000 -0.100000  0.000000       9
 -0.100000 -0.300000  0.000000       9
 -0.100000  0.400000  0.000000       9
 -0.300000 -0.100000  0.000000       9
  0.400000 -0.300000  0.000000       9
  0.100000  0.300000  0.000000       9
  0.300000 -0.400000  0.000000       9
 -0.400000  0.100000  0.000000       9
 -0.500000  0.400000  0.000000      10
  0.100000 -0.500000  0.000000      10
 -0.400000  0.500000  0.000000      10
  0.500000 -0.100000  0.000000      10
 -0.100000 -0.400000  0.000000      10
 -0.100000  0.500000  0.000000      10
 -0.400000 -0.100000  0.000000      10
  0.500000 -0.400000  0.000000      10
  0.100000  0.400000  0.000000      10
  0.400000 -0.500000  0.000000      10
 -0.500000  0.100000  0.000000      10
 -0.400000  0.200000  0.000000      11
  0.200000 -0.400000  0.000000      11
 -0.200000  0.400000  0.000000      11
  0.400000 -0.200000  0.000000      11
 -0.200000 -0.200000  0.000000      11
 -0.500000  0.300000  0.000000      12
  0.200000 -0.500000  0.000000      12
 -0.300000  0.500000  0.000000      12
  0.500000 -0.200000  0.000000      12
 -0.200000 -0.300000  0.000000      12
 -0.200000  0.500000  0.000000      12
 -0.300000 -0.200000  0.000000      12
  0.500000 -0.300000  0.000000      12
  0.200000  0.300000  0.000000      12
  0.300000 -0.500000  0.000000      12
 -0.500000  0.200000  0.000000      12
 -0.600000  0.400000  0.000000      13
  0.200000 -0.600000  0.000000      13
 -0.400000  0.600000  0.000000      13
  0.600000 -0.200000  0.000000      13
 -0.200000 -0.400000  0.000000      13
 -0.600000  0.300000  0.000000      14
  0.300000 -0.600000  0.000000      14
 -0.300000  0.600000  0.000000      14
  0.600000 -0.300000  0.000000      14
 -0.300000 -0.300000  0.000000      14
 -0.100000  0.100000  0.166667      16
  0.000000 -0.100000  0.166667      16
  0.000000  0.100000  0.166667      16
 -0.100000  0.000000  0.166667      16
  0.100000 -0.100000  0.166667      16
 -0.200000  0.200000  0.166667      17
  0.000000 -0.200000  0.166667      17
  0.000000  0.200000  0.166667      17
 -0.200000  0.000000  0.166667      17
  0.200000 -0.200000  0.166667      17
 -0.300000  0.300000  0.166667      18
  0.000000 -0.300000  0.166667      18
  0.000000  0.300000  0.166667      18
 -0.300000  0.000000  0.166667      18
  0.300000 -0.300000  0.166667      18
 -0.400000  0.400000  0.166667      19
  0.000000 -0.400000  0.166667      19
  0.000000  0.400000  0.166667      19
 -0.400000  0.000000  0.166667      19
  0.400000 -0.400000  0.166667      19
 -0.500000  0.500000  0.166667      20
  0.000000 -0.500000  0.166667      20
 -0.200000  0.100000  0.166667      21
  0.100000 -0.200000  0.166667      21
 -0.100000  0.200000  0.166667      21
  0.200000 -0.100000  0.166667      21
 -0.100000 -0.100000  0.166667      21
 -0.300000  0.200000  0.166667      22
  0.100000 -0.300000  0.166667      22
 -0.200000  0.300000  0.166667      22
  0.300000 -0.100000  0.166667      22
 -0.100000 -0.200000  0.166667      22
 -0.100000  0.300000  0.166667      22
 -0.200000 -0.100000  0.166667      22
  0.300000 -0.200000  0.166667      22
  0.100000  0.200000  0.166667      22
  0.200000 -0.300000  0.166667      22
 -0.300000  0.100000  0.166667      22
 -0.400000  0.300000  0.166667      23
  0.100000 -0.400000  0.166667      23
 -0.300000  0.400000  0.166667      23
  0.400000 -0.100000  0.166667      23
 -0.100000 -0.300000  0.166667      23
 -0.100000  0.400000  0.166667      23
 -0.300000 -0.100000  0.166667      23
  0.400000 -0.300000  0.166667      23
  0.100000  0.300000  0.166667      23
  0.300000 -0.400000  0.166667      23
 -0.400000  0.100000  0.166667      23
 -0.500000  0.400000  0.166667      24
  0.100000 -0.500000  0.166667      24
 -0.400000  0.500000  0.166667      24
  0.500000 -0.100000  0.166667      24
 -0.100000 -0.400000  0.166667      24
 -0.100000  0.500000  0.166667      24
 -0.400000 -0.100000  0.166667      24
  0.500000 -0.400000  0.166667      24
  0.100000  0.400000  0.166667      24
  0.400000 -0.500000  0.166667      24
 -0.500000  0.100000  0.166667      24
 -0.400000  0.200000  0.166667      25
  0.200000 -0.400000  0.166667      25
 -0.200000  0.400000  0.166667      25
  0.400000 -0.200000  0.166667      25
 -0.200000 -0.200000  0.166667      25
 -0.500000  0.300000  0.166667      26
  0.200000 -0.500000  0.166667      26
 -0.300000  0.500000  0.166667      26
  0.500000 -0.200000  0.166667      26
 -0.200000 -0.300000  0.166667      26
 -0.200000  0.500000  0.166667      26
 -0.300000 -0.200000  0.166667      26
  0.500000 -0.300000  0.166667      26
  0.200000  0.300000  0.166667      26
  0.300000 -0.500000  0.166667      26
 -0.500000  0.200000  0.166667      26
 -0.600000  0.400000  0.166667      27
  0.200000 -0.600000  0.166667      27
 -0.400000  0.600000  0.166667      27
  0.600000 -0.200000  0.166667      27
 -0.200000 -0.400000  0.166667      27
 -0.600000  0.300000  0.166667      28
  0.300000 -0.600000  0.166667      28
 -0.300000  0.600000  0.166667      28
  0.600000 -0.300000  0.166667      28
 -0.300000 -0.300000  0.166667      28
 -0.100000  0.100000  0.333333      30
  0.000000 -0.100000  0.333333      30
  0.000000  0.100000  0.333333      30
 -0.100000  0.000000  0.333333      30
  0.100000 -0.100000  0.333333      30
 -0.200000  0.200000  0.333333      31
  0.000000 -0.200000  0.333333      31
  0.000000  0.200000  0.333333      31
 -0.200000  0.000000  0.333333      31
  0.200000 -0.200000  0.333333      31
 -0.300000  0.300000  0.333333      32
  0.000000 -0.300000  0.333333      32
  0.000000  0.300000  0.333333      32
 -0.300000  0.000000  0.333333      32
  0.300000 -0.300000  0.333333      32
 -0.400000  0.400000  0.333333      33
  0.000000 -0.400000  0.333333      33
  0.000000  0.400000  0.333333      33
 -0.400000  0.000000  0.333333      33
  0.400000 -0.400000  0.333333      33
 -0.500000  0.500000  0.333333      34
  0.000000 -0.500000  0.333333      34
 -0.200000  0.100000  0.333333      35
  0.100000 -0.200000  0.333333      35
 -0.100000  0.200000  0.333333      35
  0.200000 -0.100000  0.333333      35
 -0.100000 -0.100000  0.333333      35
 -0.300000  0.200000  0.333333      36
  0.100000 -0.300000  0.333333      36
 -0.200000  0.300000  0.333333      36
  0.300000 -0.100000  0.333333      36
 -0.100000 -0.200000  0.333333      36
 -0.100000  0.300000  0.333333      36
 -0.200000 -0.100000  0.333333      36
  0.300000 -0.200000  0.333333      36
  0.100000  0.200000  0.333333      36
  0.200000 -0.300000  0.333333      36
 -0.300000  0.100000  0.333333      36
 -0.400000  0.300000  0.333333      37
  0.100000 -0.400000  0.333333      37
 -0.300000  0.400000  0.333333      37
  0.400000 -0.100000  0.333333      37
 -0.100000 -0.300000  0.333333      37
 -0.100000  0.400000  0.333333      37
 -0.300000 -0.100000  0.333333      37
  0.400000 -0.300000  0.333333      37
  0.100000  0.300000  0.333333      37
  0.300000 -0.400000  0.333333      37
 -0.400000  0.100000  0.333333      37
 -0.500000  0.400000  0.333333      38
  0.100000 -0.500000  0.333333      38
 -0.400000  0.500000  0.333333      38
  0.500000 -0.100000  0.333333      38
 -0.100000 -0.400000  0.333333      38
 -0.100000  0.500000  0.333333      38
 -0.400000 -0.100000  0.333333      38
  0.500000 -0.400000  0.333333      38
  0.100000  0.400000  0.333333      38
  0.400000 -0.500000  0.333333      38
 -0.500000  0.100000  0.333333      38
 -0.400000  0.200000  0.333333      39
  0.200000 -0.400000  0.333333      39
 -0.200000  0.400000  0.333333      39
  0.400000 -0.200000  0.333333      39
 -0.200000 -0.200000  0.333333      39
 -0.500000  0.300000  0.333333      40
  0.200000 -0.500000  0.333333      40
 -0.300000  0.500000  0.333333      40
  0.500000 -0.200000  0.333333      40
 -0.200000 -0.300000  0.333333      40
 -0.200000  0.500000  0.333333      40
 -0.300000 -0.200000  0.333333      40
  0.500000 -0.300000  0.333333      40
  0.200000  0.300000  0.333333      40
  0.300000 -0.500000  0.333333      40
 -0.500000  0.200000  0.333333      40
 -0.600000  0.400000  0.333333      41
  0.200000 -0.600000  0.333333      41
 -0.400000  0.600000  0.333333      41
  0.600000 -0.200000  0.333333      41
 -0.200000 -0.400000  0.333333      41
 -0.600000  0.300000  0.333333      42
  0.300000 -0.600000  0.333333      42
 -0.300000  0.600000  0.333333      42
  0.600000 -0.300000  0.333333      42
 -0.300000 -0.300000  0.333333      42
 -0.100000  0.100000  0.500000      44
  0.000000 -0.100000  0.500000      44
  0.000000  0.100000  0.500000      44
 -0.100000  0.000000  0.500000      44
  0.100000 -0.100000  0.500000      44
 -0.200000  0.200000  0.500000      45
  0.000000 -0.200000  0.500000      45
  0.000000  0.200000  0.500000      45
 -0.200000  0.000000  0.500000      45
  0.200000 -0.200000  0.500000      45
 -0.300000  0.300000  0.500000      46
  0.000000 -0.300000  0.500000      46
  0.000000  0.300000  0.500000      46
 -0.300000  0.000000  0.500000      46
  0.300000 -0.300000  0.500000      46
 -0.400000  0.400000  0.500000      47
  0.000000 -0.400000  0.500000      47
  0.000000  0.400000  0.500000      47
 -0.400000  0.000000  0.500000      47
  0.400000 -0.400000  0.500000      47
 -0.500000  0.500000  0.500000      48
  0.000000 -0.500000  0.500000      48
 -0.200000  0.100000  0.500000      49
  0.100000 -0.200000  0.500000      49
 -0.100000  0.200000  0.500000      49
  0.200000 -0.100000  0.500000      49
 -0.100000 -0.100000  0.500000      49
 -0.300000  0.200000  0.500000      50
  0.100000 -0.300000  0.500000      50
 -0.200000  0.300000  0.500000      50
  0.300000 -0.100000  0.500000      50
 -0.100000 -0.200000  0.500000      50
 -0.100000  0.300000  0.500000      50
 -0.200000 -0.100000  0.500000      50
  0.300000 -0.200000  0.500000      50
  0.100000  0.200000  0.500000      50
  0.200000 -0.300000  0.500000      50
 -0.300000  0.100000  0.500000      50
 -0.400000  0.300000  0.500000      51
  0.100000 -0.400000  0.500000      51
 -0.300000  0.400000  0.500000      51
  0.400000 -0.100000  0.500000      51
 -0.100000 -0.300000  0.500000      51
 -0.100000  0.400000  0.500000      51
 -0.300000 -0.100000  0.500000      51
  0.400000 -0.300000  0.500000      51
  0.100000  0.300000  0.500000      51
  0.300000 -0.400000  0.500000      51
 -0.400000  0.100000  0.500000      51
 -0.500000  0.400000  0.500000      52
  0.100000 -0.500000  0.500000      52
 -0.400000  0.500000  0.500000      52
  0.500000 -0.100000  0.500000      52
 -0.100000 -0.400000  0.500000      52
 -0.100000  0.500000  0.500000      52
 -0.400000 -0.100000  0.500000      52
  0.500000 -0.400000  0.500000      52
  0.100000  0.400000  0.500000      52
  0.400000 -0.500000  0.500000      52
 -0.500000  0.100000  0.500000      52
 -0.400000  0.200000  0.500000      53
  0.200000 -0.400000  0.500000      53
 -0.200000  0.400000  0.500000      53
  0.400000 -0.200000  0.500000      53
 -0.200000 -0.200000  0.500000      53
 -0.500000  0.300000  0.500000      54
  0.200000 -0.500000  0.500000      54
 -0.300000  0.500000  0.500000      54
  0.500000 -0.200000  0.500000      54
 -0.200000 -0.300000  0.500000      54
 -0.200000  0.500000  0.500000      54
 -0.300000 -0.200000  0.500000      54
  0.500000 -0.300000  0.500000      54
  0.200000  0.300000  0.500000      54
  0.300000 -0.500000  0.500000      54
 -0.500000  0.200000  0.500000      54
 -0.600000  0.400000  0.500000      55
  0.200000 -0.600000  0.500000      55
 -0.400000  0.600000  0.500000      55
  0.600000 -0.200000  0.500000      55
 -0.200000 -0.400000  0.500000      55
 -0.600000  0.300000  0.500000      56
  0.300000 -0.600000  0.500000      56
 -0.300000  0.600000  0.500000      56
  0.600000 -0.300000  0.500000      56
 -0.300000 -0.300000  0.500000      56
  0.000000  0.000000 -0.166667      15
 -0.100000  0.000000 -0.166667      16
  0.100000 -0.100000 -0.166667      16
  0.000000  0.100000 -0.166667      16
  0.000000 -0.100000 -0.166667      16
  0.100000  0.000000 -0.166667      16
 -0.100000  0.100000 -0.166667      16
 -0.200000  0.000000 -0.166667      17
  0.200000 -0.200000 -0.166667      17
  0.000000  0.200000 -0.166667      17
  0.000000 -0.200000 -0.166667      17
  0.200000  0.000000 -0.166667      17
 -0.200000  0.200000 -0.166667      17
 -0.300000  0.000000 -0.166667      18
  0.300000 -0.300000 -0.166667      18
  0.000000  0.300000 -0.166667      18
  0.000000 -0.300000 -0.166667      18
  0.300000  0.000000 -0.166667      18
 -0.300000  0.300000 -0.166667      18
 -0.400000  0.000000 -0.166667      19
  0.400000 -0.400000 -0.166667      19
  0.000000  0.400000 -0.166667      19
  0.000000 -0.400000 -0.166667      19
  0.400000  0.000000 -0.166667      19
 -0.400000  0.400000 -0.166667      19
 -0.500000  0.000000 -0.166667      20
  0.500000 -0.500000 -0.166667      20
  0.000000  0.500000 -0.166667      20
 -0.100000 -0.100000 -0.166667      21
  0.200000 -0.100000 -0.166667      21
 -0.100000  0.200000 -0.166667      21
  0.100000 -0.200000 -0.166667      21
 -0.200000  0.100000 -0.166667      21
  0.100000  0.100000 -0.166667      21
 -0.200000 -0.100000 -0.166667      22
  0.300000 -0.200000 -0.166667      22
 -0.100000  0.300000 -0.166667      22
  0.200000 -0.300000 -0.166667      22
 -0.300000  0.100000 -0.166667      22
  0.100000  0.200000 -0.166667      22
  0.100000 -0.300000 -0.166667      22
  0.200000  0.100000 -0.166667      22
 -0.300000  0.200000 -0.166667      22
 -0.100000 -0.200000 -0.166667      22
 -0.200000  0.300000 -0.166667      22
  0.300000 -0.100000 -0.166667      22
 -0.300000 -0.100000 -0.166667      23
  0.400000 -0.300000 -0.166667      23
 -0.100000  0.400000 -0.166667      23
  0.300000 -0.400000 -0.166667      23
 -0.400000  0.100000 -0.166667      23
  0.100000  0.300000 -0.166667      23
  0.100000 -0.400000 -0.166667      23
  0.300000  0.100000 -0.166667      23
 -0.400000  0.300000 -0.166667      23
 -0.100000 -0.300000 -0.166667      23
 -0.300000  0.400000 -0.166667      23
  0.400000 -0.100000 -0.166667      23
 -0.400000 -0.100000 -0.166667      24
  0.500000 -0.400000 -0.166667      24
 -0.100000  0.500000 -0.166667      24
  0.400000 -0.500000 -0.166667      24
 -0.500000  0.100000 -0.166667      24
  0.100000  0.400000 -0.166667      24
  0.100000 -0.500000 -0.166667      24
  0.400000  0.100000 -0.166667      24
 -0.500000  0.400000 -0.166667      24
 -0.100000 -0.400000 -0.166667      24
 -0.400000  0.500000 -0.166667      24
  0.500000 -0.100000 -0.166667      24
 -0.200000 -0.200000 -0.166667      25
  0.400000 -0.200000 -0.166667      25
 -0.200000  0.400000 -0.166667      25
  0.200000 -0.400000 -0.166667      25
 -0.400000  0.200000 -0.166667      25
  0.200000  0.200000 -0.166667      25
 -0.300000 -0.200000 -0.166667      26
  0.500000 -0.300000 -0.166667      26
 -0.200000  0.500000 -0.166667      26
  0.300000 -0.500000 -0.166667      26
 -0.500000  0.200000 -0.166667      26
  0.200000  0.300000 -0.166667      26
  0.200000 -0.500000 -0.166667      26
  0.300000  0.200000 -0.166667      26
 -0.500000  0.300000 -0.166667      26
 -0.200000 -0.300000 -0.166667      26
 -0.300000  0.500000 -0.166667      26
  0.500000 -0.200000 -0.166667      26
 -0.400000 -0.200000 -0.166667      27
  0.600000 -0.400000 -0.166667      27
 -0.200000  0.600000 -0.166667      27
  0.400000 -0.600000 -0.166667      27
 -0.600000  0.200000 -0.166667      27
  0.200000  0.400000 -0.166667      27
 -0.300000 -0.300000 -0.166667      28
  0.600000 -0.300000 -0.166667      28
 -0.300000  0.600000 -0.166667      28
  0.300000 -0.600000 -0.166667      28
 -0.600000  0.300000 -0.166667      28
  0.300000  0.300000 -0.166667      28
  0.000000  0.000000 -0.333333      29
 -0.100000  0.000000 -0.333333      30
  0.100000 -0.100000 -0.333333      30
  0.000000  0.100000 -0.333333      30
  0.000000 -0.100000 -0.333333      30
  0.100000  0.000000 -0.333333      30
 -0.100000  0.100000 -0.333333      30
 -0.200000  0.000000 -0.333333      31
  0.200000 -0.200000 -0.333333      31
  0.000000  0.200000 -0.333333      31
  0.000000 -0.200000 -0.333333      31
  0.200000  0.000000 -0.333333      31
 -0.200000  0.200000 -0.333333      31
 -0.300000  0.000000 -0.333333      32
  0.300000 -0.300000 -0.333333      32
  0.000000  0.300000 -0.333333      32
  0.000000 -0.300000 -0.333333      32
  0.300000  0.000000 -0.333333      32
 -0.300000  0.300000 -0.333333      32
 -0.400000  0.000000 -0.333333      33
  0.400000 -0.400000 -0.333333      33
  0.000000  0.400000 -0.333333      33
  0.000000 -0.400000 -0.333333      33
  0.400000  0.000000 -0.333333      33
 -0.400000  0.400000 -0.333333      33
 -0.500000  0.000000 -0.333333      34
  0.500000 -0.500000 -0.333333      34
  0.000000  0.500000 -0.333333      34
 -0.100000 -0.100000 -0.333333      35
  0.200000 -0.100000 -0.333333      35
 -0.100000  0.200000 -0.333333      35
  0.100000 -0.200000 -0.333333      35
 -0.200000  0.100000 -0.333333      35
  0.100000  0.100000 -0.333333      35
 -0.200000 -0.100000 -0.333333      36
  0.300000 -0.200000 -0.333333      36
 -0.100000  0.300000 -0.333333      36
  0.200000 -0.300000 -0.333333      36
 -0.300000  0.100000 -0.333333      36
  0.100000  0.200000 -0.333333      36
  0.100000 -0.300000 -0.333333      36
  0.200000  0.100000 -0.333333      36
 -0.300000  0.200000 -0.333333      36
 -0.100000 -0.200000 -0.333333      36
 -0.200000  0.300000 -0.333333      36
  0.300000 -0.100000 -0.333333      36
 -0.300000 -0.100000 -0.333333      37
  0.400000 -0.300000 -0.333333      37
 -0.100000  0.400000 -0.333333      37
  0.300000 -0.400000 -0.333333      37
 -0.400000  0.100000 -0.333333      37
  0.100000  0.300000 -0.333333      37
  0.100000 -0.400000 -0.333333      37
  0.300000  0.100000 -0.333333      37
 -0.400000  0.300000 -0.333333      37
 -0.100000 -0.300000 -0.333333      37
 -0.300000  0.400000 -0.333333      37
  0.400000 -0.100000 -0.333333      37
 -0.400000 -0.100000 -0.333333      38
  0.500000 -0.400000 -0.333333      38
 -0.100000  0.500000 -0.333333      38
  0.400000 -0.500000 -0.333333      38
 -0.500000  0.100000 -0.333333      38
  0.100000  0.400000 -0.333333      38
  0.100000 -0.500000 -0.333333      38
  0.400000  0.100000 -0.333333      38
 -0.500000  0.400000 -0.333333      38
 -0.100000 -0.400000 -0.333333      38
 -0.400000  0.500000 -0.333333      38
  0.500000 -0.100000 -0.333333      38
 -0.200000 -0.200000 -0.333333      39
  0.400000 -0.200000 -0.333333      39
 -0.200000  0.400000 -0.333333      39
  0.200000 -0.400000 -0.333333      39
 -0.400000  0.200000 -0.333333      39
  0.200000  0.200000 -0.333333      39
 -0.300000 -0.200000 -0.333333      40
  0.500000 -0.300000 -0.333333      40
 -0.200000  0.500000 -0.333333      40
  0.300000 -0.500000 -0.333333      40
 -0.500000  0.200000 -0.333333      40
  0.200000  0.300000 -0.333333      40
  0.200000 -0.500000 -0.333333      40
  0.300000  0.200000 -0.333333      40
 -0.500000  0.300000 -0.333333      40
 -0.200000 -0.300000 -0.333333      40
 -0.300000  0.500000 -0.333333      40
  0.500000 -0.200000 -0.333333      40
 -0.400000 -0.200000 -0.333333      41
  0.600000 -0.400000 -0.333333      41
 -0.200000  0.600000 -0.333333      41
  0.400000 -0.600000 -0.333333      41
 -0.600000  0.200000 -0.333333      41
  0.200000  0.400000 -0.333333      41
 -0.300000 -0.300000 -0.333333      42
  0.600000 -0.300000 -0.333333      42
 -0.300000  0.600000 -0.333333      42
  0.300000 -0.600000 -0.333333      42
 -0.600000  0.300000 -0.333333      42
  0.300000  0.300000 -0.333333      42


--------------------------------------------------------------------------------------------------------




 Dimension of arrays:
   k-points           NKPTS =     56   k-points in BZ     NKDIM =    600   number of bands    NBANDS=    200
   number of dos      NEDOS =    301   number of ions     NIONS =      4
   non local maximal  LDIM  =      6   non local SUM 2l+1 LMDIM =     18
   total plane-waves  NPLWV =  20736
   max r-space proj   IRMAX =      1   max aug-charges    IRDMAX= 102486
   dimension x,y,z NGX =    24 NGY =   24 NGZ =   36
   dimension x,y,z NGXF=    48 NGYF=   48 NGZF=   72
   support grid    NGXF=    96 NGYF=   96 NGZF=  144
   ions per type =               2   2
 NGX,Y,Z   is equivalent  to a cutoff of  12.24, 12.24, 11.40 a.u.
 NGXF,Y,Z  is equivalent  to a cutoff of  24.47, 24.47, 22.80 a.u.


 I would recommend the setting:
   dimension x,y,z NGX =    21 NGY =   21 NGZ =   34
 SYSTEM =  ZnO                                     
 POSCAR =  POSCAR created by SUPERPOSCAR           

 Startparameter for this run:
   NWRITE =      2    write-flag & timer
   PREC   = accura    medium, high low
   ISTART =      1    job   : 0-new  1-cont  2-samecut
   ICHARG =      0    charge: 1-file 2-atom 10-const
   ISPIN  =      1    spin polarized calculation?
   LNONCOLLINEAR =      F non collinear calculations
   LSORBIT =      F    spin-orbit coupling
   INIWAV =      1    electr: 0-lowe 1-rand  2-diag
   LASPH  =      F    aspherical Exc in radial PAW
   METAGGA=      F    non-selfconsistent MetaGGA calc.

 Electronic Relaxation 1
   ENCUT  =  400.0 eV  29.40 Ry    5.42 a.u.   5.32  5.32  8.56*2*pi/ulx,y,z
   ENINI  =  400.0     initial cutoff
   ENAUG  =  605.4 eV  augmentation charge cutoff
   NELM   =      2;   NELMIN=  2; NELMDL=  0     # of ELM steps 
   EDIFF  = 0.1E-03   stopping-criterion for ELM
   LREAL  =      F    real-space projection
   LCOMPAT=      F    compatible to vasp.4.4
   LREAL_COMPAT= F    compatible to vasp.4.5.1-3
   GGA_COMPAT  = T    GGA compatible to vasp.4.4-vasp.4.6
   LMAXPAW     = -100 max onsite density
   LMAXMIX     =    4 max onsite mixed and CHGCAR
   VOSKOWN=      0    Vosko Wilk Nusair interpolation
   ROPT   =    0.00000   0.00000
 Ionic relaxation
   EDIFFG = 0.1E-02   stopping-criterion for IOM
   NSW    =      0    number of steps for IOM
   NBLOCK =      1;   KBLOCK =      1    inner block; outer block 
   IBRION =     -1    ionic relax: 0-MD 1-quasi-New 2-CG
   NFREE  =      0    steps in history (QN), initial steepest desc. (CG)
   ISIF   =      0    stress and relaxation
   IWAVPR =     10    prediction:  0-non 1-charg 2-wave 3-comb
   ISYM   =      3    0-nonsym 1-usesym 2-fastsym
   LCORR  =      T    Harris-Foulkes like correction to forces

   POTIM  = 0.5000    time-step for ionic-motion
   TEIN   =    0.0    initial temperature
   TEBEG  =    0.0;   TEEND  =   0.0 temperature during run
   SMASS  =  -3.00    Nose mass-parameter (am)
   estimated Nose-frequenzy (Omega)   =  0.10E-29 period in steps =****** mass=  -0.243E-27a.u.
   NPACO  =    256;   APACO  = 16.0  distance and # of slots for P.C.
   PSTRESS=    0.0 pullay stress

  Mass of Ions in am
   POMASS =  65.39 16.00
  Ionic Valenz
   ZVAL   =  12.00  6.00
  Atomic Wigner-Seitz radii
   RWIGS  =   1.20  1.20
   NELECT =      36.0000    total number of electrons
   NUPDOWN=      -1.0000    fix difference up-down

 DOS related values:
   EMIN   =  10.00;   EMAX   =-10.00  energy-range for DOS
   EFERMI =   0.00
   ISMEAR =     0;   SIGMA  =   0.01  broadening in eV -4-tet -1-fermi 0-gaus

 Electronic relaxation 2 (details)
   IALGO  =     38    algorithm
   LDIAG  =      T    sub-space diagonalisation
   IMIX   =      4    mixing-type and parameters
     AMIX     =   0.80;   BMIX     =  1.00
     AMIX_MAG =   0.80;   BMIX_MAG =  1.00
     AMIN     =   0.10
     WC   =   100.;   INIMIX=   1;  MIXPRE=   1

 Intra band minimization:
   WEIMIN = 0.0000     energy-eigenvalue tresh-hold
   EBREAK =  0.12E-06  absolut break condition
   DEPER  =   0.30     relativ break condition  

   TIME   =   0.40     timestep for ELM

  volume/ion in A,a.u.               =      12.08        81.54
  Fermi-wavevector in a.u.,A,eV,Ry     =   1.483970  2.804297 29.962315  2.202168
  Thomas-Fermi vector in A             =   2.597565

 Write flags
   LWAVE  =      T    write WAVECAR
   LCHARG =      T    write CHGCAR
   LVTOT  =      F    write LOCPOT, local potential
   LELF   =      F    write electronic localiz. function (ELF)
   LORBIT =     10    0 simple, 1 ext, 2 COOP (PROOUT)


 Dipole corrections
   LMONO  =      F    monopole corrections only (constant potential shift)
   LDIPOL =      F    correct potential (dipole corrections)
   IDIPOL =      0    1-x, 2-y, 3-z, 4-all directions 
   EPSILON=  1.0000000 bulk dielectric constant

 Exchange correlation treatment:
   GGA     =    --    GGA type
   LEXCH   =     8    internal setting for exchange type
   VOSKOWN=      0    Vosko Wilk Nusair interpolation
   EXXOEP  =     0    0=HF, 1=EXX-LHF (local Hartree Fock) 2=EXX OEP
   LHFCALC =     T    Hartree Fock is set to
   LRHFCALC=     F    long range Hartree Fock
   LRSCOR  =     F    long range correlation only (use DFT for short range part)
   LTHOMAS =     F    Thomas Fermi screening in HF
   LMODELHF=     F    short range full HF, long range fraction AEXX
   ENCUTFOCK=  -1.0   cutoff for exchange potential in eV
   ENCUT4O =  -1.0   cutoff for four orbital integrals eV
   LMAXFOCK=     4    L truncation for augmentation on plane wave grid
   LMAXFOCKAE=   4    L truncation for all-electron charge restoration on plane wave grid
   NMAXFOCKAE=   1    number of basis functions for all-electron charge restoration
   NKREDX  =     2    reduce k-point grid by
   NKREDY  =     2    reduce k-point grid by
   NKREDZ  =     2    reduce k-point grid by
   SHIFTRED=     F    shift reduced grid of Gamma
   HFKIDENT=     F    idential grid for each k-point
   ODDONLY =     F    use only odd q-grid points
   EVENONLY=     F    use only even q-grid points
   HFALPHA =   -1.0000 decay constant for conv. correction
   AEXX    =    1.0000 exact exchange contribution
   HFSCREEN=    0.0000 screening length (either q_TF or 0.3 A-1)
   HFSCREENC=   0.0000 screening length for correlation (either q_TF or 0.3 A-1)
   HFRCUT  =    0.0000 spherical cutoff for potential kernel
   ALDAX   =    0.0000 LDA exchange part
   AGGAX   =    0.0000 GGA exchange part
   ALDAC   =    0.0000 LDA correlation
   AGGAC   =    0.0000 GGA correlation

 Linear response parameters
   LEPSILON=     F    determine dielectric tensor
   LRPA    =     F    only Hartree local field effects (RPA)
   LNABLA  =     F    use nabla operator in PAW spheres
   LVEL    =     F    velocity operator in full k-point grid
   LINTERFAST=   F  fast interpolation
   KINTER  =     0    interpolate to denser k-point grid
   CSHIFT  =0.1000    complex shift for real part using Kramers Kronig
   OMEGAMAX=  -1.0    maximum frequency

 Orbital magnetization related:
   ORBITALMAG=     F  switch on orbital magnetization
   LCHIMAG   =     F  perturbation theory with respect to B field

 Response functions by sum over occupied states:
   ALGO    =GW0       execute GW part
   LRPA    =     T    random phase (Hartree local field effects only)
   LTCTE   =     F    use test-charge test-electron dielectric function
   LTETE   =     F    use test-electron test-electron dielectric function
   L2ORDER =     F    2nd order terms only
   LGWLF   =     F    use screened W for local field effects
   ENCUTGW = 120.0    cutoff for response function in eV
   ENCUTGWSOFT = 120.0 soft cutoff for Coulomb kernel in GW response function in eV
   ENCUTLF =  -1.0    cutoff for local field effects
   LMAXMP2 =    -1    maximum L for one center terms
   SCISSOR =   0.0    scissor correction
   NOMEGA  =    64    number of frequencies
   NOMEGAR =    64    number of frequencies along real axis
   NBANDSGW=    -1    number of bands for which selfenergy shift is calculated
   NBANDSLF=    -1    number of bands for electron-hole treatment
   NELM    =     2    number of iterations in solving QP equation
   DIM     =     3    dimensionality of system (0=0D molecules, 3=3D)
   ANTIRES =     0    antiresonant part (0) no TDA (1) w=0 exact (2) accurate
   LUSEW   =     F    use W in vertex corrections (instead of screened exchange pot.)
   OMEGAMAX= -30.0    maximum frequency
   OMEGATL =-200.0    maximum frequency of tail
   OMEGAGRID=     0    grid type (0 default)
   CSHIFT  =-0.100    complex shift used in evaluation of response functions
   SELFENERGY=   F    calculate selfenergy instead of QP shifts
   LSPECTRAL =   T    use spectral functions                   

   ODDONLYGW =   F    avoid all even points for polarizability 
   EVENONLYGW=   F    avoid all odd  points for polarizability 
   NKREDLFX  =   1   NKREDLFY  =   1   NKREDLFZ  =   1

   TELESCOPE =   0   use telescope k-point sampling




--------------------------------------------------------------------------------------------------------


 Static calculation
 charge density and potential will be updated during run
 non-spin polarized calculation
 Variant of blocked Davidson
 Davidson routine will perform the subspace rotation
 perform sub-space diagonalisation
    after iterative eigenvector-optimisation
 modified Broyden-mixing scheme, WC =      100.0
 initial mixing is a Kerker type mixing with AMIX =  0.8000 and BMIX =      1.0000
 Hartree-type preconditioning will be used
 using additional bands           182
 reciprocal scheme for non local part
 use partial core corrections
 calculate Harris-corrections to forces 
   (improved forces if not selfconsistent)
 use gradient corrections 
 use of overlap-Matrix (Vanderbilt PP)
 Gauss-broadening in eV      SIGMA  =   0.01


--------------------------------------------------------------------------------------------------------


  energy-cutoff  :      400.00
  volume of cell :       48.3338
      direct lattice vectors                 reciprocal lattice vectors
     1.630270000 -2.823710458  0.000000000     0.306697664 -0.177071979  0.000000000
     1.630270000  2.823710458  0.000000000     0.306697664  0.177071979  0.000000000
     0.000000000  0.000000000  5.249786324     0.000000000  0.000000000  0.190483943

  length of vectors
     3.260539989  3.260539989  5.249786324     0.354143958  0.354143958  0.190483943



 old parameters found on file WAVECAR:
  energy-cutoff  :      400.00
  volume of cell :       48.3338
      direct lattice vectors                 reciprocal lattice vectors
     1.630270000 -2.823710458  0.000000000     0.306697664 -0.177071979  0.000000000
     1.630270000  2.823710458  0.000000000     0.306697664  0.177071979  0.000000000
     0.000000000  0.000000000  5.249786324     0.000000000  0.000000000  0.190483943

  length of vectors


 k-points in units of 2pi/SCALE and weight: Automatic generation                    
   0.00000000  0.00000000  0.00000000       0.002
   0.10000000 -0.05773503  0.00000000       0.010
   0.20000000 -0.11547005  0.00000000       0.010
   0.30000000 -0.17320508  0.00000000       0.010
   0.40000000 -0.23094011  0.00000000       0.010
   0.50000000 -0.28867514  0.00000000       0.005
   0.20000000  0.00000000  0.00000000       0.010
   0.30000000 -0.05773503  0.00000000       0.020
   0.40000000 -0.11547005  0.00000000       0.020
   0.50000000 -0.17320508  0.00000000       0.020
   0.40000000  0.00000000  0.00000000       0.010
   0.50000000 -0.05773503  0.00000000       0.020
   0.60000000 -0.11547005  0.00000000       0.010
   0.60000000  0.00000000  0.00000000       0.010
   0.00000000  0.00000000  0.10351342       0.003
   0.10000000 -0.05773503  0.10351342       0.020
   0.20000000 -0.11547005  0.10351342       0.020
   0.30000000 -0.17320508  0.10351342       0.020
   0.40000000 -0.23094011  0.10351342       0.020
   0.50000000 -0.28867514  0.10351342       0.010
   0.20000000  0.00000000  0.10351342       0.020
   0.30000000 -0.05773503  0.10351342       0.040
   0.40000000 -0.11547005  0.10351342       0.040
   0.50000000 -0.17320508  0.10351342       0.040
   0.40000000  0.00000000  0.10351342       0.020
   0.50000000 -0.05773503  0.10351342       0.040
   0.60000000 -0.11547005  0.10351342       0.020
   0.60000000  0.00000000  0.10351342       0.020
   0.00000000  0.00000000  0.20702684       0.003
   0.10000000 -0.05773503  0.20702684       0.020
   0.20000000 -0.11547005  0.20702684       0.020
   0.30000000 -0.17320508  0.20702684       0.020
   0.40000000 -0.23094011  0.20702684       0.020
   0.50000000 -0.28867514  0.20702684       0.010
   0.20000000  0.00000000  0.20702684       0.020
   0.30000000 -0.05773503  0.20702684       0.040
   0.40000000 -0.11547005  0.20702684       0.040
   0.50000000 -0.17320508  0.20702684       0.040
   0.40000000  0.00000000  0.20702684       0.020
   0.50000000 -0.05773503  0.20702684       0.040
   0.60000000 -0.11547005  0.20702684       0.020
   0.60000000  0.00000000  0.20702684       0.020
   0.00000000  0.00000000  0.31054026       0.002
   0.10000000 -0.05773503  0.31054026       0.010
   0.20000000 -0.11547005  0.31054026       0.010
   0.30000000 -0.17320508  0.31054026       0.010
   0.40000000 -0.23094011  0.31054026       0.010
   0.50000000 -0.28867514  0.31054026       0.005
   0.20000000  0.00000000  0.31054026       0.010
   0.30000000 -0.05773503  0.31054026       0.020
   0.40000000 -0.11547005  0.31054026       0.020
   0.50000000 -0.17320508  0.31054026       0.020
   0.40000000  0.00000000  0.31054026       0.010
   0.50000000 -0.05773503  0.31054026       0.020
   0.60000000 -0.11547005  0.31054026       0.010
   0.60000000  0.00000000  0.31054026       0.010

 k-points in reciprocal lattice and weights: Automatic generation                    
   0.00000000  0.00000000  0.00000000       0.002
   0.10000000  0.00000000  0.00000000       0.010
   0.20000000  0.00000000  0.00000000       0.010
   0.30000000  0.00000000  0.00000000       0.010
   0.40000000  0.00000000  0.00000000       0.010
   0.50000000  0.00000000  0.00000000       0.005
   0.10000000  0.10000000  0.00000000       0.010
   0.20000000  0.10000000  0.00000000       0.020
   0.30000000  0.10000000  0.00000000       0.020
   0.40000000  0.10000000  0.00000000       0.020
   0.20000000  0.20000000  0.00000000       0.010
   0.30000000  0.20000000  0.00000000       0.020
   0.40000000  0.20000000  0.00000000       0.010
   0.30000000  0.30000000  0.00000000       0.010
   0.00000000  0.00000000  0.16666667       0.003
   0.10000000  0.00000000  0.16666667       0.020
   0.20000000  0.00000000  0.16666667       0.020
   0.30000000  0.00000000  0.16666667       0.020
   0.40000000  0.00000000  0.16666667       0.020
   0.50000000  0.00000000  0.16666667       0.010
   0.10000000  0.10000000  0.16666667       0.020
   0.20000000  0.10000000  0.16666667       0.040
   0.30000000  0.10000000  0.16666667       0.040
   0.40000000  0.10000000  0.16666667       0.040
   0.20000000  0.20000000  0.16666667       0.020
   0.30000000  0.20000000  0.16666667       0.040
   0.40000000  0.20000000  0.16666667       0.020
   0.30000000  0.30000000  0.16666667       0.020
   0.00000000  0.00000000  0.33333333       0.003
   0.10000000  0.00000000  0.33333333       0.020
   0.20000000  0.00000000  0.33333333       0.020
   0.30000000  0.00000000  0.33333333       0.020
   0.40000000  0.00000000  0.33333333       0.020
   0.50000000  0.00000000  0.33333333       0.010
   0.10000000  0.10000000  0.33333333       0.020
   0.20000000  0.10000000  0.33333333       0.040
   0.30000000  0.10000000  0.33333333       0.040
   0.40000000  0.10000000  0.33333333       0.040
   0.20000000  0.20000000  0.33333333       0.020
   0.30000000  0.20000000  0.33333333       0.040
   0.40000000  0.20000000  0.33333333       0.020
   0.30000000  0.30000000  0.33333333       0.020
   0.00000000  0.00000000  0.50000000       0.002
   0.10000000  0.00000000  0.50000000       0.010
   0.20000000  0.00000000  0.50000000       0.010
   0.30000000  0.00000000  0.50000000       0.010
   0.40000000  0.00000000  0.50000000       0.010
   0.50000000  0.00000000  0.50000000       0.005
   0.10000000  0.10000000  0.50000000       0.010
   0.20000000  0.10000000  0.50000000       0.020
   0.30000000  0.10000000  0.50000000       0.020
   0.40000000  0.10000000  0.50000000       0.020
   0.20000000  0.20000000  0.50000000       0.010
   0.30000000  0.20000000  0.50000000       0.020
   0.40000000  0.20000000  0.50000000       0.010
   0.30000000  0.30000000  0.50000000       0.010

 position of ions in fractional coordinates (direct lattice) 
   0.00000000  0.00000000  0.99981500
   0.33333340  0.66666670  0.49981500
   0.33333340  0.66666670  0.87978500
   0.00000000  0.00000000  0.37978500

 position of ions in cartesian coordinates  (Angst):
   0.00000000  0.00000000  5.24881511
   1.63027016  0.94123673  2.62392195
   1.63027016  0.94123673  4.61868326
   0.00000000  0.00000000  1.99379010



--------------------------------------------------------------------------------------------------------


 k-point  1 :  0.00000.00000.0000  plane waves:     881
 k-point  2 :  0.10000.00000.0000  plane waves:     881
 k-point  3 :  0.20000.00000.0000  plane waves:     873
 k-point  4 :  0.30000.00000.0000  plane waves:     871
 k-point  5 :  0.40000.00000.0000  plane waves:     884
 k-point  6 :  0.50000.00000.0000  plane waves:     884
 k-point  7 :  0.10000.10000.0000  plane waves:     885
 k-point  8 :  0.20000.10000.0000  plane waves:     872
 k-point  9 :  0.30000.10000.0000  plane waves:     872
 k-point 10 :  0.40000.10000.0000  plane waves:     882
 k-point 11 :  0.20000.20000.0000  plane waves:     879
 k-point 12 :  0.30000.20000.0000  plane waves:     881
 k-point 13 :  0.40000.20000.0000  plane waves:     880
 k-point 14 :  0.30000.30000.0000  plane waves:     887
 k-point 15 :  0.00000.00000.1667  plane waves:     887
 k-point 16 :  0.10000.00000.1667  plane waves:     882
 k-point 17 :  0.20000.00000.1667  plane waves:     884
 k-point 18 :  0.30000.00000.1667  plane waves:     872
 k-point 19 :  0.40000.00000.1667  plane waves:     879
 k-point 20 :  0.50000.00000.1667  plane waves:     890
 k-point 21 :  0.10000.10000.1667  plane waves:     887
 k-point 22 :  0.20000.10000.1667  plane waves:     875
 k-point 23 :  0.30000.10000.1667  plane waves:     881
 k-point 24 :  0.40000.10000.1667  plane waves:     878
 k-point 25 :  0.20000.20000.1667  plane waves:     880
 k-point 26 :  0.30000.20000.1667  plane waves:     877
 k-point 27 :  0.40000.20000.1667  plane waves:     875
 k-point 28 :  0.30000.30000.1667  plane waves:     875
 k-point 29 :  0.00000.00000.3333  plane waves:     887
 k-point 30 :  0.10000.00000.3333  plane waves:     879
 k-point 31 :  0.20000.00000.3333  plane waves:     880
 k-point 32 :  0.30000.00000.3333  plane waves:     881
 k-point 33 :  0.40000.00000.3333  plane waves:     877
 k-point 34 :  0.50000.00000.3333  plane waves:     878
 k-point 35 :  0.10000.10000.3333  plane waves:     883
 k-point 36 :  0.20000.10000.3333  plane waves:     882
 k-point 37 :  0.30000.10000.3333  plane waves:     876
 k-point 38 :  0.40000.10000.3333  plane waves:     878
 k-point 39 :  0.20000.20000.3333  plane waves:     876
 k-point 40 :  0.30000.20000.3333  plane waves:     873
 k-point 41 :  0.40000.20000.3333  plane waves:     870
 k-point 42 :  0.30000.30000.3333  plane waves:     871
 k-point 43 :  0.00000.00000.5000  plane waves:     882
 k-point 44 :  0.10000.00000.5000  plane waves:     878
 k-point 45 :  0.20000.00000.5000  plane waves:     898
 k-point 46 :  0.30000.00000.5000  plane waves:     886
 k-point 47 :  0.40000.00000.5000  plane waves:     874
 k-point 48 :  0.50000.00000.5000  plane waves:     880
 k-point 49 :  0.10000.10000.5000  plane waves:     880
 k-point 50 :  0.20000.10000.5000  plane waves:     880
 k-point 51 :  0.30000.10000.5000  plane waves:     872
 k-point 52 :  0.40000.10000.5000  plane waves:     874
 k-point 53 :  0.20000.20000.5000  plane waves:     872
 k-point 54 :  0.30000.20000.5000  plane waves:     872
 k-point 55 :  0.40000.20000.5000  plane waves:     872
 k-point 56 :  0.30000.30000.5000  plane waves:     870

 maximum and minimum number of plane-waves per node :     898    870

 maximum number of plane-waves:     898
 maximal index in each direction: 
   IXMAX=  5   IYMAX=  5   IZMAX=  8
   IXMIN= -5   IYMIN= -5   IZMIN= -9

 NGX is ok and might be reduce to  22
 NGY is ok and might be reduce to  22
 NGZ is ok and might be reduce to  36

 serial   3D FFT for wavefunctions
 parallel 3D FFT for charge:
    minimum data exchange during FFTs selected (reduces bandwidth)


 total amount of memory used by VASP on root node  75633. kBytes
========================================================================

   base      :    30000. kBytes
   nonl-proj :    14637. kBytes
   fftplans  :     3148. kBytes
   grid      :     4345. kBytes
   one-center:       62. kBytes
   HF        :      259. kBytes
   nonlr-proj:     1678. kBytes
   wavefun   :    21504. kBytes

 Broyden mixing: mesh for mixing (old mesh)
   NGX = 11   NGY = 11   NGZ = 17
  (NGX  = 48   NGY  = 48   NGZ  = 72)
  gives a total of   2057 points

 charge density for first step will be calculated from the start-wavefunctions


--------------------------------------------------------------------------------------------------------


 Maximum index for augmentation-charges         12283 (set IRDMAX)


--------------------------------------------------------------------------------------------------------


 initial charge from wavefunction
    FEWALD:  cpu time    0.00: real time    0.00
 Response functions by sum over occupied states:
 ===============================================
   NOMEGA  =    64    number of frequencies
   NOMEGAR =    64    number of frequencies along real axis
   OMEGAMAX=  15.12   maximum frequency
   OMEGATL = 257.20   maximum frequency of tail
   CSHIFT  =  0.307   complex shift used in evaluation of response functions


 Energies w= 
 ============
   0.0   0.0   0.5   0.0   1.0   0.0   1.6   0.0   2.1   0.0
   2.6   0.0   3.1   0.0   3.6   0.0   4.1   0.0   4.5   0.0
   5.0   0.0   5.5   0.0   6.0   0.0   6.4   0.0   6.9   0.0
   7.3   0.0   7.8   0.0   8.2   0.0   8.6   0.0   9.1   0.0
   9.5   0.0   9.9   0.0  10.3   0.0  10.8   0.0  11.2   0.0
  11.7   0.0  12.1   0.0  12.5   0.0  13.0   0.0  13.5   0.0
  13.9   0.0  14.4   0.0  14.9   0.0  15.5   0.0  16.0   0.0
  16.6   0.0  17.2   0.0  17.8   0.0  18.4   0.0  19.1   0.0
  19.8   0.0  20.6   0.0  21.5   0.0  22.4   0.0  23.4   0.0
  24.4   0.0  25.6   0.0  26.9   0.0  28.4   0.0  30.0   0.0
  31.9   0.0  34.0   0.0  36.4   0.0  39.3   0.0  42.7   0.0
  46.8   0.0  51.9   0.0  58.3   0.0  66.7   0.0  78.0   0.0
  94.2   0.0 119.2   0.0 162.7   0.0 257.2   0.0


IMPORTANT INFORMATION: All symmetrisations will be switched off!
NOSYMM: (Re-)initialisation of all symmetry stuff for point group C_1.


 KPOINTS: Automatic generation                    

Automatic generation of k-mesh.
 
 Subroutine IBZKPT returns following result:
 ===========================================
 
 Found    600 irreducible k-points:
 
 Following reciprocal coordinates:
            Coordinates               Weight
  0.000000  0.000000  0.000000      1.000000
  0.100000  0.000000  0.000000      1.000000
  0.200000  0.000000  0.000000      1.000000
  0.300000  0.000000  0.000000      1.000000
  0.400000  0.000000  0.000000      1.000000
  0.500000  0.000000  0.000000      1.000000
 -0.400000  0.000000  0.000000      1.000000
 -0.300000  0.000000  0.000000      1.000000
 -0.200000  0.000000  0.000000      1.000000
 -0.100000  0.000000  0.000000      1.000000
  0.000000  0.100000  0.000000      1.000000
  0.100000  0.100000  0.000000      1.000000
  0.200000  0.100000  0.000000      1.000000
  0.300000  0.100000  0.000000      1.000000
  0.400000  0.100000  0.000000      1.000000
  0.500000  0.100000  0.000000      1.000000
 -0.400000  0.100000  0.000000      1.000000
 -0.300000  0.100000  0.000000      1.000000
 -0.200000  0.100000  0.000000      1.000000
 -0.100000  0.100000  0.000000      1.000000
  0.000000  0.200000  0.000000      1.000000
  0.100000  0.200000  0.000000      1.000000
  0.200000  0.200000  0.000000      1.000000
  0.300000  0.200000  0.000000      1.000000
  0.400000  0.200000  0.000000      1.000000
  0.500000  0.200000  0.000000      1.000000
 -0.400000  0.200000  0.000000      1.000000
 -0.300000  0.200000  0.000000      1.000000
 -0.200000  0.200000  0.000000      1.000000
 -0.100000  0.200000  0.000000      1.000000
  0.000000  0.300000  0.000000      1.000000
  0.100000  0.300000  0.000000      1.000000
  0.200000  0.300000  0.000000      1.000000
  0.300000  0.300000  0.000000      1.000000
  0.400000  0.300000  0.000000      1.000000
  0.500000  0.300000  0.000000      1.000000
 -0.400000  0.300000  0.000000      1.000000
 -0.300000  0.300000  0.000000      1.000000
 -0.200000  0.300000  0.000000      1.000000
 -0.100000  0.300000  0.000000      1.000000
  0.000000  0.400000  0.000000      1.000000
  0.100000  0.400000  0.000000      1.000000
  0.200000  0.400000  0.000000      1.000000
  0.300000  0.400000  0.000000      1.000000
  0.400000  0.400000  0.000000      1.000000
  0.500000  0.400000  0.000000      1.000000
 -0.400000  0.400000  0.000000      1.000000
 -0.300000  0.400000  0.000000      1.000000
 -0.200000  0.400000  0.000000      1.000000
 -0.100000  0.400000  0.000000      1.000000
  0.000000  0.500000  0.000000      1.000000
  0.100000  0.500000  0.000000      1.000000
  0.200000  0.500000  0.000000      1.000000
  0.300000  0.500000  0.000000      1.000000
  0.400000  0.500000  0.000000      1.000000
  0.500000  0.500000  0.000000      1.000000
 -0.400000  0.500000  0.000000      1.000000
 -0.300000  0.500000  0.000000      1.000000
 -0.200000  0.500000  0.000000      1.000000
 -0.100000  0.500000  0.000000      1.000000
  0.000000 -0.400000  0.000000      1.000000
  0.100000 -0.400000  0.000000      1.000000
  0.200000 -0.400000  0.000000      1.000000
  0.300000 -0.400000  0.000000      1.000000
  0.400000 -0.400000  0.000000      1.000000
  0.500000 -0.400000  0.000000      1.000000
 -0.400000 -0.400000  0.000000      1.000000
 -0.300000 -0.400000  0.000000      1.000000
 -0.200000 -0.400000  0.000000      1.000000
 -0.100000 -0.400000  0.000000      1.000000
  0.000000 -0.300000  0.000000      1.000000
  0.100000 -0.300000  0.000000      1.000000
  0.200000 -0.300000  0.000000      1.000000
  0.300000 -0.300000  0.000000      1.000000
  0.400000 -0.300000  0.000000      1.000000
  0.500000 -0.300000  0.000000      1.000000
 -0.400000 -0.300000  0.000000      1.000000
 -0.300000 -0.300000  0.000000      1.000000
 -0.200000 -0.300000  0.000000      1.000000
 -0.100000 -0.300000  0.000000      1.000000
  0.000000 -0.200000  0.000000      1.000000
  0.100000 -0.200000  0.000000      1.000000
  0.200000 -0.200000  0.000000      1.000000
  0.300000 -0.200000  0.000000      1.000000
  0.400000 -0.200000  0.000000      1.000000
  0.500000 -0.200000  0.000000      1.000000
 -0.400000 -0.200000  0.000000      1.000000
 -0.300000 -0.200000  0.000000      1.000000
 -0.200000 -0.200000  0.000000      1.000000
 -0.100000 -0.200000  0.000000      1.000000
  0.000000 -0.100000  0.000000      1.000000
  0.100000 -0.100000  0.000000      1.000000
  0.200000 -0.100000  0.000000      1.000000
  0.300000 -0.100000  0.000000      1.000000
  0.400000 -0.100000  0.000000      1.000000
  0.500000 -0.100000  0.000000      1.000000
 -0.400000 -0.100000  0.000000      1.000000
 -0.300000 -0.100000  0.000000      1.000000
 -0.200000 -0.100000  0.000000      1.000000
 -0.100000 -0.100000  0.000000      1.000000
  0.000000  0.000000  0.166667      1.000000
  0.100000  0.000000  0.166667      1.000000
  0.200000  0.000000  0.166667      1.000000
  0.300000  0.000000  0.166667      1.000000
  0.400000  0.000000  0.166667      1.000000
  0.500000  0.000000  0.166667      1.000000
 -0.400000  0.000000  0.166667      1.000000
 -0.300000  0.000000  0.166667      1.000000
 -0.200000  0.000000  0.166667      1.000000
 -0.100000  0.000000  0.166667      1.000000
  0.000000  0.100000  0.166667      1.000000
  0.100000  0.100000  0.166667      1.000000
  0.200000  0.100000  0.166667      1.000000
  0.300000  0.100000  0.166667      1.000000
  0.400000  0.100000  0.166667      1.000000
  0.500000  0.100000  0.166667      1.000000
 -0.400000  0.100000  0.166667      1.000000
 -0.300000  0.100000  0.166667      1.000000
 -0.200000  0.100000  0.166667      1.000000
 -0.100000  0.100000  0.166667      1.000000
  0.000000  0.200000  0.166667      1.000000
  0.100000  0.200000  0.166667      1.000000
  0.200000  0.200000  0.166667      1.000000
  0.300000  0.200000  0.166667      1.000000
  0.400000  0.200000  0.166667      1.000000
  0.500000  0.200000  0.166667      1.000000
 -0.400000  0.200000  0.166667      1.000000
 -0.300000  0.200000  0.166667      1.000000
 -0.200000  0.200000  0.166667      1.000000
 -0.100000  0.200000  0.166667      1.000000
  0.000000  0.300000  0.166667      1.000000
  0.100000  0.300000  0.166667      1.000000
  0.200000  0.300000  0.166667      1.000000
  0.300000  0.300000  0.166667      1.000000
  0.400000  0.300000  0.166667      1.000000
  0.500000  0.300000  0.166667      1.000000
 -0.400000  0.300000  0.166667      1.000000
 -0.300000  0.300000  0.166667      1.000000
 -0.200000  0.300000  0.166667      1.000000
 -0.100000  0.300000  0.166667      1.000000
  0.000000  0.400000  0.166667      1.000000
  0.100000  0.400000  0.166667      1.000000
  0.200000  0.400000  0.166667      1.000000
  0.300000  0.400000  0.166667      1.000000
  0.400000  0.400000  0.166667      1.000000
  0.500000  0.400000  0.166667      1.000000
 -0.400000  0.400000  0.166667      1.000000
 -0.300000  0.400000  0.166667      1.000000
 -0.200000  0.400000  0.166667      1.000000
 -0.100000  0.400000  0.166667      1.000000
  0.000000  0.500000  0.166667      1.000000
  0.100000  0.500000  0.166667      1.000000
  0.200000  0.500000  0.166667      1.000000
  0.300000  0.500000  0.166667      1.000000
  0.400000  0.500000  0.166667      1.000000
  0.500000  0.500000  0.166667      1.000000
 -0.400000  0.500000  0.166667      1.000000
 -0.300000  0.500000  0.166667      1.000000
 -0.200000  0.500000  0.166667      1.000000
 -0.100000  0.500000  0.166667      1.000000
  0.000000 -0.400000  0.166667      1.000000
  0.100000 -0.400000  0.166667      1.000000
  0.200000 -0.400000  0.166667      1.000000
  0.300000 -0.400000  0.166667      1.000000
  0.400000 -0.400000  0.166667      1.000000
  0.500000 -0.400000  0.166667      1.000000
 -0.400000 -0.400000  0.166667      1.000000
 -0.300000 -0.400000  0.166667      1.000000
 -0.200000 -0.400000  0.166667      1.000000
 -0.100000 -0.400000  0.166667      1.000000
  0.000000 -0.300000  0.166667      1.000000
  0.100000 -0.300000  0.166667      1.000000
  0.200000 -0.300000  0.166667      1.000000
  0.300000 -0.300000  0.166667      1.000000
  0.400000 -0.300000  0.166667      1.000000
  0.500000 -0.300000  0.166667      1.000000
 -0.400000 -0.300000  0.166667      1.000000
 -0.300000 -0.300000  0.166667      1.000000
 -0.200000 -0.300000  0.166667      1.000000
 -0.100000 -0.300000  0.166667      1.000000
  0.000000 -0.200000  0.166667      1.000000
  0.100000 -0.200000  0.166667      1.000000
  0.200000 -0.200000  0.166667      1.000000
  0.300000 -0.200000  0.166667      1.000000
  0.400000 -0.200000  0.166667      1.000000
  0.500000 -0.200000  0.166667      1.000000
 -0.400000 -0.200000  0.166667      1.000000
 -0.300000 -0.200000  0.166667      1.000000
 -0.200000 -0.200000  0.166667      1.000000
 -0.100000 -0.200000  0.166667      1.000000
  0.000000 -0.100000  0.166667      1.000000
  0.100000 -0.100000  0.166667      1.000000
  0.200000 -0.100000  0.166667      1.000000
  0.300000 -0.100000  0.166667      1.000000
  0.400000 -0.100000  0.166667      1.000000
  0.500000 -0.100000  0.166667      1.000000
 -0.400000 -0.100000  0.166667      1.000000
 -0.300000 -0.100000  0.166667      1.000000
 -0.200000 -0.100000  0.166667      1.000000
 -0.100000 -0.100000  0.166667      1.000000
  0.000000  0.000000  0.333333      1.000000
  0.100000  0.000000  0.333333      1.000000
  0.200000  0.000000  0.333333      1.000000
  0.300000  0.000000  0.333333      1.000000
  0.400000  0.000000  0.333333      1.000000
  0.500000  0.000000  0.333333      1.000000
 -0.400000  0.000000  0.333333      1.000000
 -0.300000  0.000000  0.333333      1.000000
 -0.200000  0.000000  0.333333      1.000000
 -0.100000  0.000000  0.333333      1.000000
  0.000000  0.100000  0.333333      1.000000
  0.100000  0.100000  0.333333      1.000000
  0.200000  0.100000  0.333333      1.000000
  0.300000  0.100000  0.333333      1.000000
  0.400000  0.100000  0.333333      1.000000
  0.500000  0.100000  0.333333      1.000000
 -0.400000  0.100000  0.333333      1.000000
 -0.300000  0.100000  0.333333      1.000000
 -0.200000  0.100000  0.333333      1.000000
 -0.100000  0.100000  0.333333      1.000000
  0.000000  0.200000  0.333333      1.000000
  0.100000  0.200000  0.333333      1.000000
  0.200000  0.200000  0.333333      1.000000
  0.300000  0.200000  0.333333      1.000000
  0.400000  0.200000  0.333333      1.000000
  0.500000  0.200000  0.333333      1.000000
 -0.400000  0.200000  0.333333      1.000000
 -0.300000  0.200000  0.333333      1.000000
 -0.200000  0.200000  0.333333      1.000000
 -0.100000  0.200000  0.333333      1.000000
  0.000000  0.300000  0.333333      1.000000
  0.100000  0.300000  0.333333      1.000000
  0.200000  0.300000  0.333333      1.000000
  0.300000  0.300000  0.333333      1.000000
  0.400000  0.300000  0.333333      1.000000
  0.500000  0.300000  0.333333      1.000000
 -0.400000  0.300000  0.333333      1.000000
 -0.300000  0.300000  0.333333      1.000000
 -0.200000  0.300000  0.333333      1.000000
 -0.100000  0.300000  0.333333      1.000000
  0.000000  0.400000  0.333333      1.000000
  0.100000  0.400000  0.333333      1.000000
  0.200000  0.400000  0.333333      1.000000
  0.300000  0.400000  0.333333      1.000000
  0.400000  0.400000  0.333333      1.000000
  0.500000  0.400000  0.333333      1.000000
 -0.400000  0.400000  0.333333      1.000000
 -0.300000  0.400000  0.333333      1.000000
 -0.200000  0.400000  0.333333      1.000000
 -0.100000  0.400000  0.333333      1.000000
  0.000000  0.500000  0.333333      1.000000
  0.100000  0.500000  0.333333      1.000000
  0.200000  0.500000  0.333333      1.000000
  0.300000  0.500000  0.333333      1.000000
  0.400000  0.500000  0.333333      1.000000
  0.500000  0.500000  0.333333      1.000000
 -0.400000  0.500000  0.333333      1.000000
 -0.300000  0.500000  0.333333      1.000000
 -0.200000  0.500000  0.333333      1.000000
 -0.100000  0.500000  0.333333      1.000000
  0.000000 -0.400000  0.333333      1.000000
  0.100000 -0.400000  0.333333      1.000000
  0.200000 -0.400000  0.333333      1.000000
  0.300000 -0.400000  0.333333      1.000000
  0.400000 -0.400000  0.333333      1.000000
  0.500000 -0.400000  0.333333      1.000000
 -0.400000 -0.400000  0.333333      1.000000
 -0.300000 -0.400000  0.333333      1.000000
 -0.200000 -0.400000  0.333333      1.000000
 -0.100000 -0.400000  0.333333      1.000000
  0.000000 -0.300000  0.333333      1.000000
  0.100000 -0.300000  0.333333      1.000000
  0.200000 -0.300000  0.333333      1.000000
  0.300000 -0.300000  0.333333      1.000000
  0.400000 -0.300000  0.333333      1.000000
  0.500000 -0.300000  0.333333      1.000000
 -0.400000 -0.300000  0.333333      1.000000
 -0.300000 -0.300000  0.333333      1.000000
 -0.200000 -0.300000  0.333333      1.000000
 -0.100000 -0.300000  0.333333      1.000000
  0.000000 -0.200000  0.333333      1.000000
  0.100000 -0.200000  0.333333      1.000000
  0.200000 -0.200000  0.333333      1.000000
  0.300000 -0.200000  0.333333      1.000000
  0.400000 -0.200000  0.333333      1.000000
  0.500000 -0.200000  0.333333      1.000000
 -0.400000 -0.200000  0.333333      1.000000
 -0.300000 -0.200000  0.333333      1.000000
 -0.200000 -0.200000  0.333333      1.000000
 -0.100000 -0.200000  0.333333      1.000000
  0.000000 -0.100000  0.333333      1.000000
  0.100000 -0.100000  0.333333      1.000000
  0.200000 -0.100000  0.333333      1.000000
  0.300000 -0.100000  0.333333      1.000000
  0.400000 -0.100000  0.333333      1.000000
  0.500000 -0.100000  0.333333      1.000000
 -0.400000 -0.100000  0.333333      1.000000
 -0.300000 -0.100000  0.333333      1.000000
 -0.200000 -0.100000  0.333333      1.000000
 -0.100000 -0.100000  0.333333      1.000000
  0.000000  0.000000  0.500000      1.000000
  0.100000  0.000000  0.500000      1.000000
  0.200000  0.000000  0.500000      1.000000
  0.300000  0.000000  0.500000      1.000000
  0.400000  0.000000  0.500000      1.000000
  0.500000  0.000000  0.500000      1.000000
 -0.400000  0.000000  0.500000      1.000000
 -0.300000  0.000000  0.500000      1.000000
 -0.200000  0.000000  0.500000      1.000000
 -0.100000  0.000000  0.500000      1.000000
  0.000000  0.100000  0.500000      1.000000
  0.100000  0.100000  0.500000      1.000000
  0.200000  0.100000  0.500000      1.000000
  0.300000  0.100000  0.500000      1.000000
  0.400000  0.100000  0.500000      1.000000
  0.500000  0.100000  0.500000      1.000000
 -0.400000  0.100000  0.500000      1.000000
 -0.300000  0.100000  0.500000      1.000000
 -0.200000  0.100000  0.500000      1.000000
 -0.100000  0.100000  0.500000      1.000000
  0.000000  0.200000  0.500000      1.000000
  0.100000  0.200000  0.500000      1.000000
  0.200000  0.200000  0.500000      1.000000
  0.300000  0.200000  0.500000      1.000000
  0.400000  0.200000  0.500000      1.000000
  0.500000  0.200000  0.500000      1.000000
 -0.400000  0.200000  0.500000      1.000000
 -0.300000  0.200000  0.500000      1.000000
 -0.200000  0.200000  0.500000      1.000000
 -0.100000  0.200000  0.500000      1.000000
  0.000000  0.300000  0.500000      1.000000
  0.100000  0.300000  0.500000      1.000000
  0.200000  0.300000  0.500000      1.000000
  0.300000  0.300000  0.500000      1.000000
  0.400000  0.300000  0.500000      1.000000
  0.500000  0.300000  0.500000      1.000000
 -0.400000  0.300000  0.500000      1.000000
 -0.300000  0.300000  0.500000      1.000000
 -0.200000  0.300000  0.500000      1.000000
 -0.100000  0.300000  0.500000      1.000000
  0.000000  0.400000  0.500000      1.000000
  0.100000  0.400000  0.500000      1.000000
  0.200000  0.400000  0.500000      1.000000
  0.300000  0.400000  0.500000      1.000000
  0.400000  0.400000  0.500000      1.000000
  0.500000  0.400000  0.500000      1.000000
 -0.400000  0.400000  0.500000      1.000000
 -0.300000  0.400000  0.500000      1.000000
 -0.200000  0.400000  0.500000      1.000000
 -0.100000  0.400000  0.500000      1.000000
  0.000000  0.500000  0.500000      1.000000
  0.100000  0.500000  0.500000      1.000000
  0.200000  0.500000  0.500000      1.000000
  0.300000  0.500000  0.500000      1.000000
  0.400000  0.500000  0.500000      1.000000
  0.500000  0.500000  0.500000      1.000000
 -0.400000  0.500000  0.500000      1.000000
 -0.300000  0.500000  0.500000      1.000000
 -0.200000  0.500000  0.500000      1.000000
 -0.100000  0.500000  0.500000      1.000000
  0.000000 -0.400000  0.500000      1.000000
  0.100000 -0.400000  0.500000      1.000000
  0.200000 -0.400000  0.500000      1.000000
  0.300000 -0.400000  0.500000      1.000000
  0.400000 -0.400000  0.500000      1.000000
  0.500000 -0.400000  0.500000      1.000000
 -0.400000 -0.400000  0.500000      1.000000
 -0.300000 -0.400000  0.500000      1.000000
 -0.200000 -0.400000  0.500000      1.000000
 -0.100000 -0.400000  0.500000      1.000000
  0.000000 -0.300000  0.500000      1.000000
  0.100000 -0.300000  0.500000      1.000000
  0.200000 -0.300000  0.500000      1.000000
  0.300000 -0.300000  0.500000      1.000000
  0.400000 -0.300000  0.500000      1.000000
  0.500000 -0.300000  0.500000      1.000000
 -0.400000 -0.300000  0.500000      1.000000
 -0.300000 -0.300000  0.500000      1.000000
 -0.200000 -0.300000  0.500000      1.000000
 -0.100000 -0.300000  0.500000      1.000000
  0.000000 -0.200000  0.500000      1.000000
  0.100000 -0.200000  0.500000      1.000000
  0.200000 -0.200000  0.500000      1.000000
  0.300000 -0.200000  0.500000      1.000000
  0.400000 -0.200000  0.500000      1.000000
  0.500000 -0.200000  0.500000      1.000000
 -0.400000 -0.200000  0.500000      1.000000
 -0.300000 -0.200000  0.500000      1.000000
 -0.200000 -0.200000  0.500000      1.000000
 -0.100000 -0.200000  0.500000      1.000000
  0.000000 -0.100000  0.500000      1.000000
  0.100000 -0.100000  0.500000      1.000000
  0.200000 -0.100000  0.500000      1.000000
  0.300000 -0.100000  0.500000      1.000000
  0.400000 -0.100000  0.500000      1.000000
  0.500000 -0.100000  0.500000      1.000000
 -0.400000 -0.100000  0.500000      1.000000
 -0.300000 -0.100000  0.500000      1.000000
 -0.200000 -0.100000  0.500000      1.000000
 -0.100000 -0.100000  0.500000      1.000000
  0.000000  0.000000 -0.333333      1.000000
  0.100000  0.000000 -0.333333      1.000000
  0.200000  0.000000 -0.333333      1.000000
  0.300000  0.000000 -0.333333      1.000000
  0.400000  0.000000 -0.333333      1.000000
  0.500000  0.000000 -0.333333      1.000000
 -0.400000  0.000000 -0.333333      1.000000
 -0.300000  0.000000 -0.333333      1.000000
 -0.200000  0.000000 -0.333333      1.000000
 -0.100000  0.000000 -0.333333      1.000000
[...]
     13      -4.2734      -4.3159     -21.3785      17.0509     -26.6935       0.7837       2.0000
     14      -4.2734      -4.3159     -21.3785      17.0509     -26.6935       0.7837       2.0000
     15      -2.4301      -2.4634     -20.9332      18.4610     -25.4658       0.7918       2.0000
     16      -2.4301      -2.4634     -20.9332      18.4610     -25.4658       0.7918       2.0000
     17      -1.9098      -1.9412     -21.2624      19.3130     -25.7236       0.7937       2.0000
     18      -1.9098      -1.9412     -21.2624      19.3130     -25.7236       0.7937       2.0000
     19       8.2515       8.2743     -11.2401      19.5189      -7.6800       0.8320       0.0000
     20       8.2515       8.2743     -11.2401      19.5189      -7.6800       0.8320       0.0000
     21      11.9397      11.9677     -10.3815      22.3552      -6.2709       0.8253       0.0000
     22      11.9397      11.9677     -10.3815      22.3552      -6.2709       0.8253       0.0000
     23      13.4660      13.4970      -9.9584      23.4620      -5.6504       0.8242       0.0000
     24      13.4660      13.4970      -9.9584      23.4620      -5.6504       0.8242       0.0000
     25      16.2925      16.3241      -9.0542      25.3850      -4.4806       0.8250       0.0000
     26      16.2925      16.3241      -9.0542      25.3850      -4.4806       0.8250       0.0000
     27      19.7826      19.8158      -8.8746      28.6977      -3.9924       0.8181       0.0000
     28      19.7826      19.8158      -8.8746      28.6977      -3.9924       0.8181       0.0000
     29      22.2804      22.3107      -8.9009      31.2180      -3.8796       0.8273       0.0000
     30      22.2804      22.3107      -8.9009      31.2180      -3.8796       0.8273       0.0000
     31      26.3310      26.3580      -9.6413      36.0049      -4.1868       0.8283       0.0000
     32      26.3310      26.3580      -9.6413      36.0049      -4.1868       0.8283       0.0000
     33      28.1530      28.1750      -9.3686      37.5477      -3.9625       0.8455       0.0000
     34      28.1530      28.1750      -9.3686      37.5477      -3.9625       0.8455       0.0000
     35      30.2717      30.2897      -8.7327      39.0256      -3.4998       0.8504       0.0000
     36      30.2717      30.2897      -8.7327      39.0256      -3.4998       0.8504       0.0000
     37      31.9999      32.0148      -8.2562      40.2734      -2.9341       0.8608       0.0000
     38      31.9999      32.0148      -8.2562      40.2734      -2.9341       0.8608       0.0000
     39      34.0165      34.0323      -9.3658      43.4008      -3.7649       0.8532       0.0000
     40      34.0165      34.0323      -9.3658      43.4008      -3.7649       0.8532       0.0000
     41      34.8001      34.8131      -8.7866      43.6017      -3.3809       0.8621       0.0000
     42      34.8001      34.8131      -8.7866      43.6017      -3.3809       0.8621       0.0000
     43      38.0639      38.0762      -8.4106      46.4887      -2.7406       0.8665       0.0000
     44      38.0639      38.0762      -8.4106      46.4887      -2.7406       0.8665       0.0000
     45      39.3623      39.3752      -8.2323      47.6095      -2.7339       0.8639       0.0000
     46      39.3623      39.3752      -8.2323      47.6095      -2.7339       0.8639       0.0000
     47      41.2852      41.2965      -8.0941      49.3923      -2.6228       0.8646       0.0000
     48      41.2852      41.2965      -8.0941      49.3923      -2.6228       0.8646       0.0000

 k-point  54 :       0.3000    0.2000    0.5000
  band No. old QP-enery  QP-energies   sigma(DFT)  T+V_ion+V_H  V^pw_x(r,r')   Z            occupation

      1     -18.8952     -18.9423     -22.5826       3.6226     -31.1056       0.7268       2.0000
      2     -18.8952     -18.9423     -22.5826       3.6226     -31.1056       0.7268       2.0000
      3      -7.6550      -7.7176     -21.8725      14.1354     -28.4308       0.7632       2.0000
      4      -7.6550      -7.7176     -21.8725      14.1354     -28.4308       0.7632       2.0000
      5      -7.3519      -7.4160     -23.2721      15.8364     -30.2947       0.7657       2.0000
      6      -7.3519      -7.4160     -23.2721      15.8364     -30.2947       0.7657       2.0000
      7      -7.2012      -7.2649     -23.6202      16.3359     -30.7563       0.7670       2.0000
      8      -7.2012      -7.2649     -23.6202      16.3359     -30.7563       0.7670       2.0000
      9      -6.8099      -6.8766     -24.8846      17.9887     -32.4459       0.7756       2.0000
     10      -6.8099      -6.8766     -24.8846      17.9887     -32.4459       0.7756       2.0000
     11      -6.5702      -6.6344     -24.9334      18.2803     -32.4722       0.7753       2.0000
     12      -6.5702      -6.6344     -24.9334      18.2803     -32.4722       0.7753       2.0000
     13      -4.7847      -4.8296     -21.1447      16.3023     -26.5150       0.7789       2.0000
     14      -4.7847      -4.8296     -21.1447      16.3023     -26.5150       0.7789       2.0000
     15      -2.9676      -3.0024     -20.5158      17.5041     -25.0810       0.7905       2.0000
     16      -2.9676      -3.0024     -20.5158      17.5041     -25.0810       0.7905       2.0000
     17      -1.8654      -1.8967     -21.3189      19.4140     -25.7666       0.7934       2.0000
     18      -1.8654      -1.8967     -21.3189      19.4140     -25.7666       0.7934       2.0000
     19       8.8851       8.9085     -10.4409      19.3539      -6.7794       0.8362       0.0000
     20       8.8851       8.9085     -10.4409      19.3539      -6.7794       0.8362       0.0000
     21      11.7089      11.7382     -11.3557      23.1006      -7.2451       0.8148       0.0000
     22      11.7089      11.7382     -11.3557      23.1006      -7.2451       0.8148       0.0000
     23      12.7826      12.8129     -10.1782      22.9975      -5.9477       0.8241       0.0000
     24      12.7826      12.8129     -10.1782      22.9975      -5.9477       0.8241       0.0000
     25      16.8442      16.8753      -8.8467      25.7285      -4.2825       0.8263       0.0000
     26      16.8442      16.8753      -8.8467      25.7285      -4.2825       0.8263       0.0000
     27      19.3492      19.3838      -9.2015      28.5931      -4.2434       0.8141       0.0000
     28      19.3492      19.3838      -9.2015      28.5931      -4.2434       0.8141       0.0000
     29      22.8747      22.9059      -9.2171      32.1298      -4.0379       0.8233       0.0000
     30      22.8747      22.9059      -9.2171      32.1298      -4.0379       0.8233       0.0000
     31      25.9795      26.0056      -9.5872      35.5980      -4.2183       0.8323       0.0000
     32      25.9795      26.0056      -9.5872      35.5980      -4.2183       0.8323       0.0000
     33      28.4848      28.5074      -9.3260      37.8376      -3.9162       0.8446       0.0000
     34      28.4848      28.5074      -9.3260      37.8376      -3.9162       0.8446       0.0000
     35      30.6400      30.6583      -8.9762      39.6378      -3.7688       0.8496       0.0000
     36      30.6400      30.6583      -8.9762      39.6378      -3.7688       0.8496       0.0000
     37      33.3757      33.3920      -8.9433      42.3381      -3.5256       0.8558       0.0000
     38      33.3757      33.3920      -8.9433      42.3381      -3.5256       0.8558       0.0000
     39      34.8229      34.8362      -8.6184      43.4568      -3.2718       0.8614       0.0000
     40      34.8229      34.8362      -8.6184      43.4568      -3.2718       0.8614       0.0000
     41      36.1967      36.2077      -7.9256      44.1349      -2.5016       0.8706       0.0000
     42      36.1967      36.2077      -7.9256      44.1349      -2.5016       0.8706       0.0000
     43      37.4253      37.4382      -8.4909      45.9311      -2.9308       0.8652       0.0000
     44      37.4253      37.4382      -8.4909      45.9311      -2.9308       0.8652       0.0000
     45      39.6401      39.6525      -8.1891      47.8436      -2.7152       0.8629       0.0000
     46      39.6401      39.6525      -8.1891      47.8436      -2.7152       0.8629       0.0000
     47      41.6040      41.6154      -8.4632      50.0803      -2.7958       0.8631       0.0000
     48      41.6040      41.6154      -8.4632      50.0803      -2.7958       0.8631       0.0000

 k-point  55 :       0.4000    0.2000    0.5000
  band No. old QP-enery  QP-energies   sigma(DFT)  T+V_ion+V_H  V^pw_x(r,r')   Z            occupation

      1     -18.8601     -18.9070     -22.6303       3.7058     -31.1542       0.7279       2.0000
      2     -18.8601     -18.9070     -22.6303       3.7058     -31.1542       0.7279       2.0000
      3      -7.6371      -7.6999     -22.0150      14.2957     -28.6238       0.7634       2.0000
      4      -7.6371      -7.6999     -22.0150      14.2957     -28.6238       0.7634       2.0000
      5      -7.3582      -7.4226     -23.3572      15.9149     -30.4167       0.7655       2.0000
      6      -7.3582      -7.4226     -23.3572      15.9149     -30.4167       0.7655       2.0000
      7      -7.0726      -7.1357     -23.5649      16.4101     -30.6431       0.7676       2.0000
      8      -7.0726      -7.1357     -23.5649      16.4101     -30.6431       0.7676       2.0000
      9      -6.8385      -6.9052     -24.8154      17.8909     -32.3678       0.7752       2.0000
     10      -6.8385      -6.9052     -24.8154      17.8909     -32.3678       0.7752       2.0000
     11      -6.4767      -6.5397     -25.0541      18.4962     -32.6344       0.7753       2.0000
     12      -6.4767      -6.5397     -25.0541      18.4962     -32.6344       0.7753       2.0000
     13      -5.0429      -5.0888     -20.8479      15.7459     -26.1654       0.7762       2.0000
     14      -5.0429      -5.0888     -20.8479      15.7459     -26.1654       0.7762       2.0000
     15      -3.1753      -3.2108     -20.3917      17.1714     -24.9820       0.7896       2.0000
     16      -3.1753      -3.2108     -20.3917      17.1714     -24.9820       0.7896       2.0000
     17      -1.8375      -1.8685     -21.3492      19.4727     -25.7894       0.7941       2.0000
     18      -1.8375      -1.8685     -21.3492      19.4727     -25.7894       0.7941       2.0000
     19       9.1566       9.1797      -9.7557      18.9398      -6.0594       0.8418       0.0000
     20       9.1566       9.1797      -9.7557      18.9398      -6.0594       0.8418       0.0000
     21      11.5880      11.6180     -12.1720      23.7974      -8.0329       0.8053       0.0000
     22      11.5880      11.6180     -12.1720      23.7974      -8.0329       0.8053       0.0000
     23      12.4991      12.5287     -10.1514      22.6864      -5.9777       0.8251       0.0000
     24      12.4991      12.5287     -10.1514      22.6864      -5.9777       0.8251       0.0000
     25      17.2033      17.2345      -8.7383      25.9793      -4.1862       0.8272       0.0000
     26      17.2033      17.2345      -8.7383      25.9793      -4.1862       0.8272       0.0000
     27      19.1400      19.1758      -9.4664      28.6506      -4.4144       0.8088       0.0000
     28      19.1400      19.1758      -9.4664      28.6506      -4.4144       0.8088       0.0000
     29      23.0285      23.0588      -9.2445      32.3095      -4.1028       0.8276       0.0000
     30      23.0285      23.0588      -9.2445      32.3095      -4.1028       0.8276       0.0000
     31      25.7263      25.7534      -9.5264      35.2853      -4.1400       0.8297       0.0000
     32      25.7263      25.7534      -9.5264      35.2853      -4.1400       0.8297       0.0000
     33      28.9439      28.9669      -9.2568      38.2279      -3.8998       0.8415       0.0000
     34      28.9439      28.9669      -9.2568      38.2279      -3.8998       0.8415       0.0000
     35      30.6597      30.6777      -9.1441      39.8251      -3.8400       0.8492       0.0000
     36      30.6597      30.6777      -9.1441      39.8251      -3.8400       0.8492       0.0000
     37      32.9252      32.9423      -8.9311      41.8763      -3.5782       0.8544       0.0000
     38      32.9252      32.9423      -8.9311      41.8763      -3.5782       0.8544       0.0000
     39      35.8993      35.9105      -8.3539      44.2661      -2.9898       0.8713       0.0000
     40      35.8993      35.9105      -8.3539      44.2661      -2.9898       0.8713       0.0000
     41      36.7218      36.7340      -8.5050      45.2409      -3.1306       0.8662       0.0000
     42      36.7218      36.7340      -8.5050      45.2409      -3.1306       0.8662       0.0000
     43      38.8464      38.8586      -7.9981      46.8586      -2.5049       0.8670       0.0000
     44      38.8464      38.8586      -7.9981      46.8586      -2.5049       0.8670       0.0000
     45      39.5155      39.5258      -8.2363      47.7636      -2.7060       0.8720       0.0000
     46      39.5155      39.5258      -8.2363      47.7636      -2.7060       0.8720       0.0000
     47      40.3734      40.3850      -8.0030      48.3898      -2.4793       0.8639       0.0000
     48      40.3734      40.3850      -8.0030      48.3898      -2.4793       0.8639       0.0000

 k-point  56 :       0.3000    0.3000    0.5000
  band No. old QP-enery  QP-energies   sigma(DFT)  T+V_ion+V_H  V^pw_x(r,r')   Z            occupation

      1     -18.8457     -18.8926     -22.6447       3.7347     -31.1686       0.7286       2.0000
      2     -18.8457     -18.8926     -22.6447       3.7347     -31.1686       0.7286       2.0000
      3      -7.5631      -7.6264     -22.3238      14.6779     -29.0368       0.7641       2.0000
      4      -7.5631      -7.6264     -22.3238      14.6779     -29.0368       0.7641       2.0000
      5      -7.4098      -7.4742     -23.1100      15.6161     -30.0832       0.7654       2.0000
      6      -7.4098      -7.4742     -23.1100      15.6161     -30.0832       0.7654       2.0000
      7      -7.0320      -7.0954     -23.7168      16.6023     -30.8402       0.7686       2.0000
      8      -7.0320      -7.0954     -23.7168      16.6023     -30.8402       0.7686       2.0000
      9      -6.8809      -6.9475     -24.7183      17.7515     -32.2493       0.7745       2.0000
     10      -6.8809      -6.9475     -24.7183      17.7515     -32.2493       0.7745       2.0000
     11      -6.4212      -6.4841     -25.1253      18.6229     -32.7142       0.7753       2.0000
     12      -6.4212      -6.4841     -25.1253      18.6229     -32.7142       0.7753       2.0000
     13      -4.9192      -4.9641     -20.7043      15.7273     -25.9060       0.7765       2.0000
     14      -4.9192      -4.9641     -20.7043      15.7273     -25.9060       0.7765       2.0000
     15      -3.5632      -3.6003     -20.1465      16.5362     -24.7980       0.7880       2.0000
     16      -3.5632      -3.6003     -20.1465      16.5362     -24.7980       0.7880       2.0000
     17      -1.8122      -1.8433     -21.3618      19.5104     -25.7956       0.7933       2.0000
     18      -1.8122      -1.8433     -21.3618      19.5104     -25.7956       0.7933       2.0000
     19       9.8477       9.8726     -10.1354      20.0129      -6.3746       0.8366       0.0000
     20       9.8477       9.8726     -10.1354      20.0129      -6.3746       0.8366       0.0000
     21      11.1314      11.1587     -10.1872      21.3515      -6.2282       0.8296       0.0000
     22      11.1314      11.1587     -10.1872      21.3515      -6.2282       0.8296       0.0000
     23      12.2011      12.2326     -12.0499      24.2900      -7.7689       0.8070       0.0000
     24      12.2011      12.2326     -12.0499      24.2900      -7.7689       0.8070       0.0000
     25      17.6557      17.6864      -8.5084      26.2011      -3.9741       0.8292       0.0000
     26      17.6557      17.6864      -8.5084      26.2011      -3.9741       0.8292       0.0000
     27      19.1276      19.1631      -9.5469      28.7182      -4.4816       0.8110       0.0000
     28      19.1276      19.1631      -9.5469      28.7182      -4.4816       0.8110       0.0000
     29      22.2918      22.3224      -9.2662      31.5951      -4.1772       0.8264       0.0000
     30      22.2918      22.3224      -9.2662      31.5951      -4.1772       0.8264       0.0000
     31      26.4106      26.4365      -9.4507      35.8924      -4.0406       0.8324       0.0000
     32      26.4106      26.4365      -9.4507      35.8924      -4.0406       0.8324       0.0000
     33      28.7298      28.7519      -9.4273      38.1833      -3.9359       0.8432       0.0000
     34      28.7298      28.7519      -9.4273      38.1833      -3.9359       0.8432       0.0000
     35      30.3630      30.3794      -9.1272      39.5094      -3.9182       0.8580       0.0000
     36      30.3630      30.3794      -9.1272      39.5094      -3.9182       0.8580       0.0000
     37      34.0641      34.0791      -8.7793      42.8609      -3.4652       0.8583       0.0000
     38      34.0641      34.0791      -8.7793      42.8609      -3.4652       0.8583       0.0000
     39      35.0889      35.1003      -8.3112      43.4133      -2.8563       0.8707       0.0000
     40      35.0889      35.1003      -8.3112      43.4133      -2.8563       0.8707       0.0000
     41      37.4202      37.4314      -8.7118      46.1449      -3.3137       0.8715       0.0000
     42      37.4202      37.4314      -8.7118      46.1449      -3.3137       0.8715       0.0000
     43      38.1783      38.1895      -8.0627      46.2539      -2.6075       0.8704       0.0000
     44      38.1783      38.1895      -8.0627      46.2539      -2.6075       0.8704       0.0000
     45      39.5751      39.5854      -8.6334      48.2203      -3.1596       0.8714       0.0000
     46      39.5751      39.5854      -8.6334      48.2203      -3.1596       0.8714       0.0000
     47      40.5313      40.5430      -7.7841      48.3290      -2.2494       0.8638       0.0000
     48      40.5313      40.5430      -7.7841      48.3290      -2.2494       0.8638       0.0000


--------------------------------------------------------------------------------------------------------


  QP_SHIFT:  cpu time    1.93: real time    1.93
 writing wavefunctions
    4ORBIT:  cpu time    0.00: real time    0.00



 total charge     

# of ion     s       p       d       tot
----------------------------------------
  1        0.416   0.468   9.931  10.816
  2        0.418   0.468   9.931  10.817
  3        1.573   3.505   0.000   5.078
  4        1.573   3.504   0.000   5.078
------------------------------------------------
tot        3.981   7.946  19.862  31.789


 total amount of memory used by VASP on root node  75633. kBytes
========================================================================

   base      :    30000. kBytes
   nonl-proj :    14637. kBytes
   fftplans  :     3148. kBytes
   grid      :     4345. kBytes
   one-center:       62. kBytes
   HF        :      259. kBytes
   nonlr-proj:     1678. kBytes
   wavefun   :    21504. kBytes
   2eintegral:        0. kBytes
   response  :        0. kBytes

  
  
 General timing and accounting informations for this job:
 ========================================================
  
                  Total CPU time used (sec):    31126.174
                            User time (sec):    30734.073
                          System time (sec):      392.101
                         Elapsed time (sec):    31141.290
  
                   Maximum memory used (kb):           0.
                   Average memory used (kb):           0.
  
                          Minor page faults:    111139268
                          Major page faults:            0
                 Voluntary context switches:         1033
