 vasp.5.2.2 15Apr09 complex 
 executed on             LinuxPgi date 2009.12.29  12:34:46
 running on    8 nodes
 distr:  one band on    1 nodes,    8 groups


--------------------------------------------------------------------------------------------------------


 INCAR:
 POTCAR:   PAW_PBE Zn 06Sep2000                   
 POTCAR:   PAW_PBE O 08Apr2002                    
 POTCAR:   PAW_PBE Zn 06Sep2000                   
   VRHFIN =Zn: d10 p2                                                           
   LEXCH  = PE                                                                  
   EATOM  =  1749.0928 eV,  128.5547 Ry                                         
                                                                                
   TITEL  = PAW_PBE Zn 06Sep2000                                                
   LULTRA =        F    use ultrasoft PP ?                                      
   IUNSCR =        1    unscreen: 0-lin 1-nonlin 2-no                           
   RPACOR =    2.000    partial core radius                                     
   POMASS =   65.390; ZVAL   =   12.000    mass and valenz                      
   RCORE  =    2.300    outmost cutoff radius                                   
   RWIGS  =    2.400; RWIGS  =    1.270    wigner-seitz radius (au A)           
   ENMAX  =  276.727; ENMIN  =  207.545 eV                                      
   RCLOC  =    1.828    cutoff for local pot                                    
   LCOR   =        T    correct aug charges                                     
   LPAW   =        T    paw PP                                                  
   EAUG   =  575.892                                                            
   DEXC   =    -.003                                                            
   RMAX   =    2.772    core radius for proj-oper                               
   RAUG   =    1.300    factor for augmentation sphere                          
   RDEP   =    2.324    radius for radial grids                                 
   QCUT   =   -4.510; QGAM   =    9.020    optimization parameters              
                                                                                
   Description                                                                  
     l     E      TYP  RCUT    TYP  RCUT                                        
     2   .000     23  2.300                                                     
     2   .000     23  2.300                                                     
     0   .000     23  2.300                                                     
     0   .000     23  2.300                                                     
     1  -.200     23  2.300                                                     
     1   .000     23  2.300                                                     
     3   .000      7   .000                                                     
  local pseudopotential read in
  partial core-charges read in
  atomic valenz-charges read in
  non local Contribution for L=            2  read in
    real space projection operators read in
  non local Contribution for L=            2  read in
    real space projection operators read in
  non local Contribution for L=            0  read in
    real space projection operators read in
  non local Contribution for L=            0  read in
    real space projection operators read in
  non local Contribution for L=            1  read in
    real space projection operators read in
  non local Contribution for L=            1  read in
    real space projection operators read in
    PAW grid and wavefunctions read in

   number of l-projection  operators is LMAX  =            6
   number of lm-projection operators is LMMAX =           18

 POTCAR:   PAW_PBE O 08Apr2002                    
   VRHFIN =O: s2p4                                                              
   LEXCH  = PE                                                                  
   EATOM  =   432.3788 eV,   31.7789 Ry                                         
                                                                                
   TITEL  = PAW_PBE O 08Apr2002                                                 
   LULTRA =        F    use ultrasoft PP ?                                      
   IUNSCR =        0    unscreen: 0-lin 1-nonlin 2-no                           
   RPACOR =     .000    partial core radius                                     
   POMASS =   16.000; ZVAL   =    6.000    mass and valenz                      
   RCORE  =    1.520    outmost cutoff radius                                   
   RWIGS  =    1.550; RWIGS  =     .820    wigner-seitz radius (au A)           
   ENMAX  =  400.000; ENMIN  =  300.000 eV                                      
   ICORE  =        2    local potential                                         
   LCOR   =        T    correct aug charges                                     
   LPAW   =        T    paw PP                                                  
   EAUG   =  605.392                                                            
   DEXC   =     .000                                                            
   RMAX   =    2.264    core radius for proj-oper                               
   RAUG   =    1.300    factor for augmentation sphere                          
   RDEP   =    1.550    radius for radial grids                                 
   QCUT   =   -5.520; QGAM   =   11.041    optimization parameters              
                                                                                
   Description                                                                  
     l     E      TYP  RCUT    TYP  RCUT                                        
     0   .000     23  1.200                                                     
     0  -.700     23  1.200                                                     
     1   .000     23  1.520                                                     
     1   .600     23  1.520                                                     
     2   .000      7  1.500                                                     
  local pseudopotential read in
  atomic valenz-charges read in
  non local Contribution for L=            0  read in
    real space projection operators read in
  non local Contribution for L=            0  read in
    real space projection operators read in
  non local Contribution for L=            1  read in
    real space projection operators read in
  non local Contribution for L=            1  read in
    real space projection operators read in
    PAW grid and wavefunctions read in

   number of l-projection  operators is LMAX  =            4
   number of lm-projection operators is LMMAX =            8

 PAW_PBE Zn 06Sep2000                   :
 energy of atom  1       EATOM=-1749.0928
 kinetic energy error for atom=    0.0107 (will be added to EATOM!!)
 PAW_PBE O 08Apr2002                    :
 energy of atom  2       EATOM= -432.3788
 kinetic energy error for atom=    0.1156 (will be added to EATOM!!)


 POSCAR: POSCAR created by SUPERPOSCAR           
  positions in direct lattice
  No initial velocities read in
 exchange correlation table for  LEXCH =        8
   RHO(1)=    0.500       N(1)  =     2000
   RHO(2)=  100.500       N(2)  =     4000



--------------------------------------------------------------------------------------------------------


 ion  position               nearest neighbor table
   1  0.000  0.000  1.000 -   3 1.985   3 1.985   3 1.985   4 1.995
   2  0.333  0.667  0.500 -   4 1.985   4 1.985   4 1.985   3 1.995
   3  0.333  0.667  0.880 -   1 1.985   1 1.985   1 1.985   2 1.995
   4  0.000  0.000  0.380 -   2 1.985   2 1.985   2 1.985   1 1.995

  LATTYP: Found a hexagonal cell.
 ALAT       =     3.2605400000
 C/A-ratio  =     1.6100972000
  
  Lattice vectors:
  
 A1 = (   1.6302700000,  -2.8237104577,   0.0000000000)
 A2 = (   1.6302700000,   2.8237104577,   0.0000000000)
 A3 = (   0.0000000000,   0.0000000000,   5.2497863245)
 Subroutine PRICEL returns:
 Original cell was already a primitive cell.
 

Analysis of symmetry for initial positions (statically):

 Routine SETGRP: Setting up the symmetry group for a 
 hexagonal supercell.


 Subroutine GETGRP returns: Found 12 space group operations
 (whereof  6 operations were pure point group operations)
 out of a pool of 24 trial point group operations.


The static configuration has the point symmetry C_3v.
 The point group associated with its full space group is C_6v.

Analysis of symmetry for dynamics (positions and initial velocities):

 Subroutine DYNSYM returns: Found 12 space group operations
 (whereof  6 operations were pure point group operations)
 out of a pool of 12 trial space group operations
 (whereof  6 operations were pure point group operations)
 and found also     1 'primitive' translations


The dynamic configuration has the point symmetry C_3v.
 The point group associated with its full space group is C_6v.


 KPOINTS: Automatic generation                    

Automatic generation of k-mesh.
 
 Subroutine IBZKPT returns following result:
 ===========================================
 
 Found     56 irreducible k-points:
 
 Following reciprocal coordinates:
            Coordinates               Weight
  0.000000  0.000000  0.000000      1.000000
  0.100000  0.000000  0.000000      6.000000
  0.200000  0.000000  0.000000      6.000000
  0.300000  0.000000  0.000000      6.000000
  0.400000  0.000000  0.000000      6.000000
  0.500000  0.000000  0.000000      3.000000
  0.100000  0.100000  0.000000      6.000000
  0.200000  0.100000  0.000000     12.000000
  0.300000  0.100000  0.000000     12.000000
  0.400000  0.100000  0.000000     12.000000
  0.200000  0.200000  0.000000      6.000000
  0.300000  0.200000  0.000000     12.000000
  0.400000  0.200000  0.000000      6.000000
  0.300000  0.300000  0.000000      6.000000
  0.000000  0.000000  0.166667      2.000000
  0.100000  0.000000  0.166667     12.000000
  0.200000  0.000000  0.166667     12.000000
  0.300000  0.000000  0.166667     12.000000
  0.400000  0.000000  0.166667     12.000000
  0.500000  0.000000  0.166667      6.000000
  0.100000  0.100000  0.166667     12.000000
  0.200000  0.100000  0.166667     24.000000
  0.300000  0.100000  0.166667     24.000000
  0.400000  0.100000  0.166667     24.000000
  0.200000  0.200000  0.166667     12.000000
  0.300000  0.200000  0.166667     24.000000
  0.400000  0.200000  0.166667     12.000000
  0.300000  0.300000  0.166667     12.000000
  0.000000  0.000000  0.333333      2.000000
  0.100000  0.000000  0.333333     12.000000
  0.200000  0.000000  0.333333     12.000000
  0.300000  0.000000  0.333333     12.000000
  0.400000  0.000000  0.333333     12.000000
  0.500000  0.000000  0.333333      6.000000
  0.100000  0.100000  0.333333     12.000000
  0.200000  0.100000  0.333333     24.000000
  0.300000  0.100000  0.333333     24.000000
  0.400000  0.100000  0.333333     24.000000
  0.200000  0.200000  0.333333     12.000000
  0.300000  0.200000  0.333333     24.000000
  0.400000  0.200000  0.333333     12.000000
  0.300000  0.300000  0.333333     12.000000
  0.000000  0.000000  0.500000      1.000000
  0.100000  0.000000  0.500000      6.000000
  0.200000  0.000000  0.500000      6.000000
  0.300000  0.000000  0.500000      6.000000
  0.400000  0.000000  0.500000      6.000000
  0.500000  0.000000  0.500000      3.000000
  0.100000  0.100000  0.500000      6.000000
  0.200000  0.100000  0.500000     12.000000
  0.300000  0.100000  0.500000     12.000000
  0.400000  0.100000  0.500000     12.000000
  0.200000  0.200000  0.500000      6.000000
  0.300000  0.200000  0.500000     12.000000
  0.400000  0.200000  0.500000      6.000000
  0.300000  0.300000  0.500000      6.000000
 
 Following cartesian coordinates:
            Coordinates               Weight
  0.000000  0.000000  0.000000      1.000000
  0.100000 -0.057735  0.000000      6.000000
  0.200000 -0.115470  0.000000      6.000000
  0.300000 -0.173205  0.000000      6.000000
  0.400000 -0.230940  0.000000      6.000000
  0.500000 -0.288675  0.000000      3.000000
  0.200000  0.000000  0.000000      6.000000
  0.300000 -0.057735  0.000000     12.000000
  0.400000 -0.115470  0.000000     12.000000
  0.500000 -0.173205  0.000000     12.000000
  0.400000  0.000000  0.000000      6.000000
  0.500000 -0.057735  0.000000     12.000000
  0.600000 -0.115470  0.000000      6.000000
  0.600000  0.000000  0.000000      6.000000
  0.000000  0.000000  0.103513      2.000000
  0.100000 -0.057735  0.103513     12.000000
  0.200000 -0.115470  0.103513     12.000000
  0.300000 -0.173205  0.103513     12.000000
  0.400000 -0.230940  0.103513     12.000000
  0.500000 -0.288675  0.103513      6.000000
  0.200000  0.000000  0.103513     12.000000
  0.300000 -0.057735  0.103513     24.000000
  0.400000 -0.115470  0.103513     24.000000
  0.500000 -0.173205  0.103513     24.000000
  0.400000  0.000000  0.103513     12.000000
  0.500000 -0.057735  0.103513     24.000000
  0.600000 -0.115470  0.103513     12.000000
  0.600000  0.000000  0.103513     12.000000
  0.000000  0.000000  0.207027      2.000000
  0.100000 -0.057735  0.207027     12.000000
  0.200000 -0.115470  0.207027     12.000000
  0.300000 -0.173205  0.207027     12.000000
  0.400000 -0.230940  0.207027     12.000000
  0.500000 -0.288675  0.207027      6.000000
  0.200000  0.000000  0.207027     12.000000
  0.300000 -0.057735  0.207027     24.000000
  0.400000 -0.115470  0.207027     24.000000
  0.500000 -0.173205  0.207027     24.000000
  0.400000  0.000000  0.207027     12.000000
  0.500000 -0.057735  0.207027     24.000000
  0.600000 -0.115470  0.207027     12.000000
  0.600000  0.000000  0.207027     12.000000
  0.000000  0.000000  0.310540      1.000000
  0.100000 -0.057735  0.310540      6.000000
  0.200000 -0.115470  0.310540      6.000000
  0.300000 -0.173205  0.310540      6.000000
  0.400000 -0.230940  0.310540      6.000000
  0.500000 -0.288675  0.310540      3.000000
  0.200000  0.000000  0.310540      6.000000
  0.300000 -0.057735  0.310540     12.000000
  0.400000 -0.115470  0.310540     12.000000
  0.500000 -0.173205  0.310540     12.000000
  0.400000  0.000000  0.310540      6.000000
  0.500000 -0.057735  0.310540     12.000000
  0.600000 -0.115470  0.310540      6.000000
  0.600000  0.000000  0.310540      6.000000
 
 
 Subroutine IBZKPT_HF returns following result:
 ==============================================
 
 Found    600 k-points in 1st BZ
 the following    600 k-points will be used (e.g. in the exchange kernel)
 Following reciprocal coordinates:   # in IRBZ
  0.000000  0.000000  0.000000       1
  0.100000  0.000000  0.000000       2
  0.200000  0.000000  0.000000       3
  0.300000  0.000000  0.000000       4
  0.400000  0.000000  0.000000       5
  0.500000  0.000000  0.000000       6
  0.100000  0.100000  0.000000       7
  0.200000  0.100000  0.000000       8
  0.300000  0.100000  0.000000       9
  0.400000  0.100000  0.000000      10
  0.200000  0.200000  0.000000      11
  0.300000  0.200000  0.000000      12
  0.400000  0.200000  0.000000      13
  0.300000  0.300000  0.000000      14
  0.000000  0.000000  0.166667      15
  0.100000  0.000000  0.166667      16
  0.200000  0.000000  0.166667      17
  0.300000  0.000000  0.166667      18
  0.400000  0.000000  0.166667      19
  0.500000  0.000000  0.166667      20
  0.100000  0.100000  0.166667      21
  0.200000  0.100000  0.166667      22
  0.300000  0.100000  0.166667      23
  0.400000  0.100000  0.166667      24
  0.200000  0.200000  0.166667      25
  0.300000  0.200000  0.166667      26
  0.400000  0.200000  0.166667      27
  0.300000  0.300000  0.166667      28
  0.000000  0.000000  0.333333      29
  0.100000  0.000000  0.333333      30
  0.200000  0.000000  0.333333      31
  0.300000  0.000000  0.333333      32
  0.400000  0.000000  0.333333      33
  0.500000  0.000000  0.333333      34
  0.100000  0.100000  0.333333      35
  0.200000  0.100000  0.333333      36
  0.300000  0.100000  0.333333      37
  0.400000  0.100000  0.333333      38
  0.200000  0.200000  0.333333      39
  0.300000  0.200000  0.333333      40
  0.400000  0.200000  0.333333      41
  0.300000  0.300000  0.333333      42
  0.000000  0.000000  0.500000      43
  0.100000  0.000000  0.500000      44
  0.200000  0.000000  0.500000      45
  0.300000  0.000000  0.500000      46
  0.400000  0.000000  0.500000      47
  0.500000  0.000000  0.500000      48
  0.100000  0.100000  0.500000      49
  0.200000  0.100000  0.500000      50
  0.300000  0.100000  0.500000      51
  0.400000  0.100000  0.500000      52
  0.200000  0.200000  0.500000      53
  0.300000  0.200000  0.500000      54
  0.400000  0.200000  0.500000      55
  0.300000  0.300000  0.500000      56
 -0.100000  0.100000  0.000000       2
  0.000000 -0.100000  0.000000       2
  0.000000  0.100000  0.000000       2
 -0.100000  0.000000  0.000000       2
  0.100000 -0.100000  0.000000       2
 -0.200000  0.200000  0.000000       3
  0.000000 -0.200000  0.000000       3
  0.000000  0.200000  0.000000       3
 -0.200000  0.000000  0.000000       3
  0.200000 -0.200000  0.000000       3
 -0.300000  0.300000  0.000000       4
  0.000000 -0.300000  0.000000       4
  0.000000  0.300000  0.000000       4
 -0.300000  0.000000  0.000000       4
  0.300000 -0.300000  0.000000       4
 -0.400000  0.400000  0.000000       5
  0.000000 -0.400000  0.000000       5
  0.000000  0.400000  0.000000       5
 -0.400000  0.000000  0.000000       5
  0.400000 -0.400000  0.000000       5
 -0.500000  0.500000  0.000000       6
  0.000000 -0.500000  0.000000       6
 -0.200000  0.100000  0.000000       7
  0.100000 -0.200000  0.000000       7
 -0.100000  0.200000  0.000000       7
  0.200000 -0.100000  0.000000       7
 -0.100000 -0.100000  0.000000       7
 -0.300000  0.200000  0.000000       8
  0.100000 -0.300000  0.000000       8
 -0.200000  0.300000  0.000000       8
  0.300000 -0.100000  0.000000       8
 -0.100000 -0.200000  0.000000       8
 -0.100000  0.300000  0.000000       8
 -0.200000 -0.100000  0.000000       8
  0.300000 -0.200000  0.000000       8
  0.100000  0.200000  0.000000       8
  0.200000 -0.300000  0.000000       8
 -0.300000  0.100000  0.000000       8
 -0.400000  0.300000  0.000000       9
  0.100000 -0.400000  0.000000       9
 -0.300000  0.400000  0.000000       9
  0.400000 -0.100000  0.000000       9
 -0.100000 -0.300000  0.000000       9
 -0.100000  0.400000  0.000000       9
 -0.300000 -0.100000  0.000000       9
  0.400000 -0.300000  0.000000       9
  0.100000  0.300000  0.000000       9
  0.300000 -0.400000  0.000000       9
 -0.400000  0.100000  0.000000       9
 -0.500000  0.400000  0.000000      10
  0.100000 -0.500000  0.000000      10
 -0.400000  0.500000  0.000000      10
  0.500000 -0.100000  0.000000      10
 -0.100000 -0.400000  0.000000      10
 -0.100000  0.500000  0.000000      10
 -0.400000 -0.100000  0.000000      10
  0.500000 -0.400000  0.000000      10
  0.100000  0.400000  0.000000      10
  0.400000 -0.500000  0.000000      10
 -0.500000  0.100000  0.000000      10
 -0.400000  0.200000  0.000000      11
  0.200000 -0.400000  0.000000      11
 -0.200000  0.400000  0.000000      11
  0.400000 -0.200000  0.000000      11
 -0.200000 -0.200000  0.000000      11
 -0.500000  0.300000  0.000000      12
  0.200000 -0.500000  0.000000      12
 -0.300000  0.500000  0.000000      12
  0.500000 -0.200000  0.000000      12
 -0.200000 -0.300000  0.000000      12
 -0.200000  0.500000  0.000000      12
 -0.300000 -0.200000  0.000000      12
  0.500000 -0.300000  0.000000      12
  0.200000  0.300000  0.000000      12
  0.300000 -0.500000  0.000000      12
 -0.500000  0.200000  0.000000      12
 -0.600000  0.400000  0.000000      13
  0.200000 -0.600000  0.000000      13
 -0.400000  0.600000  0.000000      13
  0.600000 -0.200000  0.000000      13
 -0.200000 -0.400000  0.000000      13
 -0.600000  0.300000  0.000000      14
  0.300000 -0.600000  0.000000      14
 -0.300000  0.600000  0.000000      14
  0.600000 -0.300000  0.000000      14
 -0.300000 -0.300000  0.000000      14
 -0.100000  0.100000  0.166667      16
  0.000000 -0.100000  0.166667      16
  0.000000  0.100000  0.166667      16
 -0.100000  0.000000  0.166667      16
  0.100000 -0.100000  0.166667      16
 -0.200000  0.200000  0.166667      17
  0.000000 -0.200000  0.166667      17
  0.000000  0.200000  0.166667      17
 -0.200000  0.000000  0.166667      17
  0.200000 -0.200000  0.166667      17
 -0.300000  0.300000  0.166667      18
  0.000000 -0.300000  0.166667      18
  0.000000  0.300000  0.166667      18
 -0.300000  0.000000  0.166667      18
  0.300000 -0.300000  0.166667      18
 -0.400000  0.400000  0.166667      19
  0.000000 -0.400000  0.166667      19
  0.000000  0.400000  0.166667      19
 -0.400000  0.000000  0.166667      19
  0.400000 -0.400000  0.166667      19
 -0.500000  0.500000  0.166667      20
  0.000000 -0.500000  0.166667      20
 -0.200000  0.100000  0.166667      21
  0.100000 -0.200000  0.166667      21
 -0.100000  0.200000  0.166667      21
  0.200000 -0.100000  0.166667      21
 -0.100000 -0.100000  0.166667      21
 -0.300000  0.200000  0.166667      22
  0.100000 -0.300000  0.166667      22
 -0.200000  0.300000  0.166667      22
  0.300000 -0.100000  0.166667      22
 -0.100000 -0.200000  0.166667      22
 -0.100000  0.300000  0.166667      22
 -0.200000 -0.100000  0.166667      22
  0.300000 -0.200000  0.166667      22
  0.100000  0.200000  0.166667      22
  0.200000 -0.300000  0.166667      22
 -0.300000  0.100000  0.166667      22
 -0.400000  0.300000  0.166667      23
  0.100000 -0.400000  0.166667      23
 -0.300000  0.400000  0.166667      23
  0.400000 -0.100000  0.166667      23
 -0.100000 -0.300000  0.166667      23
 -0.100000  0.400000  0.166667      23
 -0.300000 -0.100000  0.166667      23
  0.400000 -0.300000  0.166667      23
  0.100000  0.300000  0.166667      23
  0.300000 -0.400000  0.166667      23
 -0.400000  0.100000  0.166667      23
 -0.500000  0.400000  0.166667      24
  0.100000 -0.500000  0.166667      24
 -0.400000  0.500000  0.166667      24
  0.500000 -0.100000  0.166667      24
 -0.100000 -0.400000  0.166667      24
 -0.100000  0.500000  0.166667      24
 -0.400000 -0.100000  0.166667      24
  0.500000 -0.400000  0.166667      24
  0.100000  0.400000  0.166667      24
  0.400000 -0.500000  0.166667      24
 -0.500000  0.100000  0.166667      24
 -0.400000  0.200000  0.166667      25
  0.200000 -0.400000  0.166667      25
 -0.200000  0.400000  0.166667      25
  0.400000 -0.200000  0.166667      25
 -0.200000 -0.200000  0.166667      25
 -0.500000  0.300000  0.166667      26
  0.200000 -0.500000  0.166667      26
 -0.300000  0.500000  0.166667      26
  0.500000 -0.200000  0.166667      26
 -0.200000 -0.300000  0.166667      26
 -0.200000  0.500000  0.166667      26
 -0.300000 -0.200000  0.166667      26
  0.500000 -0.300000  0.166667      26
  0.200000  0.300000  0.166667      26
  0.300000 -0.500000  0.166667      26
 -0.500000  0.200000  0.166667      26
 -0.600000  0.400000  0.166667      27
  0.200000 -0.600000  0.166667      27
 -0.400000  0.600000  0.166667      27
  0.600000 -0.200000  0.166667      27
 -0.200000 -0.400000  0.166667      27
 -0.600000  0.300000  0.166667      28
  0.300000 -0.600000  0.166667      28
 -0.300000  0.600000  0.166667      28
  0.600000 -0.300000  0.166667      28
 -0.300000 -0.300000  0.166667      28
 -0.100000  0.100000  0.333333      30
  0.000000 -0.100000  0.333333      30
  0.000000  0.100000  0.333333      30
 -0.100000  0.000000  0.333333      30
  0.100000 -0.100000  0.333333      30
 -0.200000  0.200000  0.333333      31
  0.000000 -0.200000  0.333333      31
  0.000000  0.200000  0.333333      31
 -0.200000  0.000000  0.333333      31
  0.200000 -0.200000  0.333333      31
 -0.300000  0.300000  0.333333      32
  0.000000 -0.300000  0.333333      32
  0.000000  0.300000  0.333333      32
 -0.300000  0.000000  0.333333      32
  0.300000 -0.300000  0.333333      32
 -0.400000  0.400000  0.333333      33
  0.000000 -0.400000  0.333333      33
  0.000000  0.400000  0.333333      33
 -0.400000  0.000000  0.333333      33
  0.400000 -0.400000  0.333333      33
 -0.500000  0.500000  0.333333      34
  0.000000 -0.500000  0.333333      34
 -0.200000  0.100000  0.333333      35
  0.100000 -0.200000  0.333333      35
 -0.100000  0.200000  0.333333      35
  0.200000 -0.100000  0.333333      35
 -0.100000 -0.100000  0.333333      35
 -0.300000  0.200000  0.333333      36
  0.100000 -0.300000  0.333333      36
 -0.200000  0.300000  0.333333      36
  0.300000 -0.100000  0.333333      36
 -0.100000 -0.200000  0.333333      36
 -0.100000  0.300000  0.333333      36
 -0.200000 -0.100000  0.333333      36
  0.300000 -0.200000  0.333333      36
  0.100000  0.200000  0.333333      36
  0.200000 -0.300000  0.333333      36
 -0.300000  0.100000  0.333333      36
 -0.400000  0.300000  0.333333      37
  0.100000 -0.400000  0.333333      37
 -0.300000  0.400000  0.333333      37
  0.400000 -0.100000  0.333333      37
 -0.100000 -0.300000  0.333333      37
 -0.100000  0.400000  0.333333      37
 -0.300000 -0.100000  0.333333      37
  0.400000 -0.300000  0.333333      37
  0.100000  0.300000  0.333333      37
  0.300000 -0.400000  0.333333      37
 -0.400000  0.100000  0.333333      37
 -0.500000  0.400000  0.333333      38
  0.100000 -0.500000  0.333333      38
 -0.400000  0.500000  0.333333      38
  0.500000 -0.100000  0.333333      38
 -0.100000 -0.400000  0.333333      38
 -0.100000  0.500000  0.333333      38
 -0.400000 -0.100000  0.333333      38
  0.500000 -0.400000  0.333333      38
  0.100000  0.400000  0.333333      38
  0.400000 -0.500000  0.333333      38
 -0.500000  0.100000  0.333333      38
 -0.400000  0.200000  0.333333      39
  0.200000 -0.400000  0.333333      39
 -0.200000  0.400000  0.333333      39
  0.400000 -0.200000  0.333333      39
 -0.200000 -0.200000  0.333333      39
 -0.500000  0.300000  0.333333      40
  0.200000 -0.500000  0.333333      40
 -0.300000  0.500000  0.333333      40
  0.500000 -0.200000  0.333333      40
 -0.200000 -0.300000  0.333333      40
 -0.200000  0.500000  0.333333      40
 -0.300000 -0.200000  0.333333      40
  0.500000 -0.300000  0.333333      40
  0.200000  0.300000  0.333333      40
  0.300000 -0.500000  0.333333      40
 -0.500000  0.200000  0.333333      40
 -0.600000  0.400000  0.333333      41
  0.200000 -0.600000  0.333333      41
 -0.400000  0.600000  0.333333      41
  0.600000 -0.200000  0.333333      41
 -0.200000 -0.400000  0.333333      41
 -0.600000  0.300000  0.333333      42
  0.300000 -0.600000  0.333333      42
 -0.300000  0.600000  0.333333      42
  0.600000 -0.300000  0.333333      42
 -0.300000 -0.300000  0.333333      42
 -0.100000  0.100000  0.500000      44
  0.000000 -0.100000  0.500000      44
  0.000000  0.100000  0.500000      44
 -0.100000  0.000000  0.500000      44
  0.100000 -0.100000  0.500000      44
 -0.200000  0.200000  0.500000      45
  0.000000 -0.200000  0.500000      45
  0.000000  0.200000  0.500000      45
 -0.200000  0.000000  0.500000      45
  0.200000 -0.200000  0.500000      45
 -0.300000  0.300000  0.500000      46
  0.000000 -0.300000  0.500000      46
  0.000000  0.300000  0.500000      46
 -0.300000  0.000000  0.500000      46
  0.300000 -0.300000  0.500000      46
 -0.400000  0.400000  0.500000      47
  0.000000 -0.400000  0.500000      47
  0.000000  0.400000  0.500000      47
 -0.400000  0.000000  0.500000      47
  0.400000 -0.400000  0.500000      47
 -0.500000  0.500000  0.500000      48
  0.000000 -0.500000  0.500000      48
 -0.200000  0.100000  0.500000      49
  0.100000 -0.200000  0.500000      49
 -0.100000  0.200000  0.500000      49
  0.200000 -0.100000  0.500000      49
 -0.100000 -0.100000  0.500000      49
 -0.300000  0.200000  0.500000      50
  0.100000 -0.300000  0.500000      50
 -0.200000  0.300000  0.500000      50
  0.300000 -0.100000  0.500000      50
 -0.100000 -0.200000  0.500000      50
 -0.100000  0.300000  0.500000      50
 -0.200000 -0.100000  0.500000      50
  0.300000 -0.200000  0.500000      50
  0.100000  0.200000  0.500000      50
  0.200000 -0.300000  0.500000      50
 -0.300000  0.100000  0.500000      50
 -0.400000  0.300000  0.500000      51
  0.100000 -0.400000  0.500000      51
 -0.300000  0.400000  0.500000      51
  0.400000 -0.100000  0.500000      51
 -0.100000 -0.300000  0.500000      51
 -0.100000  0.400000  0.500000      51
 -0.300000 -0.100000  0.500000      51
  0.400000 -0.300000  0.500000      51
  0.100000  0.300000  0.500000      51
  0.300000 -0.400000  0.500000      51
 -0.400000  0.100000  0.500000      51
 -0.500000  0.400000  0.500000      52
  0.100000 -0.500000  0.500000      52
 -0.400000  0.500000  0.500000      52
  0.500000 -0.100000  0.500000      52
 -0.100000 -0.400000  0.500000      52
 -0.100000  0.500000  0.500000      52
 -0.400000 -0.100000  0.500000      52
  0.500000 -0.400000  0.500000      52
  0.100000  0.400000  0.500000      52
  0.400000 -0.500000  0.500000      52
 -0.500000  0.100000  0.500000      52
 -0.400000  0.200000  0.500000      53
  0.200000 -0.400000  0.500000      53
 -0.200000  0.400000  0.500000      53
  0.400000 -0.200000  0.500000      53
 -0.200000 -0.200000  0.500000      53
 -0.500000  0.300000  0.500000      54
  0.200000 -0.500000  0.500000      54
 -0.300000  0.500000  0.500000      54
  0.500000 -0.200000  0.500000      54
 -0.200000 -0.300000  0.500000      54
 -0.200000  0.500000  0.500000      54
 -0.300000 -0.200000  0.500000      54
  0.500000 -0.300000  0.500000      54
  0.200000  0.300000  0.500000      54
  0.300000 -0.500000  0.500000      54
 -0.500000  0.200000  0.500000      54
 -0.600000  0.400000  0.500000      55
  0.200000 -0.600000  0.500000      55
 -0.400000  0.600000  0.500000      55
  0.600000 -0.200000  0.500000      55
 -0.200000 -0.400000  0.500000      55
 -0.600000  0.300000  0.500000      56
  0.300000 -0.600000  0.500000      56
 -0.300000  0.600000  0.500000      56
  0.600000 -0.300000  0.500000      56
 -0.300000 -0.300000  0.500000      56
  0.000000  0.000000 -0.166667      15
 -0.100000  0.000000 -0.166667      16
  0.100000 -0.100000 -0.166667      16
  0.000000  0.100000 -0.166667      16
  0.000000 -0.100000 -0.166667      16
  0.100000  0.000000 -0.166667      16
 -0.100000  0.100000 -0.166667      16
 -0.200000  0.000000 -0.166667      17
  0.200000 -0.200000 -0.166667      17
  0.000000  0.200000 -0.166667      17
  0.000000 -0.200000 -0.166667      17
  0.200000  0.000000 -0.166667      17
 -0.200000  0.200000 -0.166667      17
 -0.300000  0.000000 -0.166667      18
  0.300000 -0.300000 -0.166667      18
  0.000000  0.300000 -0.166667      18
  0.000000 -0.300000 -0.166667      18
  0.300000  0.000000 -0.166667      18
 -0.300000  0.300000 -0.166667      18
 -0.400000  0.000000 -0.166667      19
  0.400000 -0.400000 -0.166667      19
  0.000000  0.400000 -0.166667      19
  0.000000 -0.400000 -0.166667      19
  0.400000  0.000000 -0.166667      19
 -0.400000  0.400000 -0.166667      19
 -0.500000  0.000000 -0.166667      20
  0.500000 -0.500000 -0.166667      20
  0.000000  0.500000 -0.166667      20
 -0.100000 -0.100000 -0.166667      21
  0.200000 -0.100000 -0.166667      21
 -0.100000  0.200000 -0.166667      21
  0.100000 -0.200000 -0.166667      21
 -0.200000  0.100000 -0.166667      21
  0.100000  0.100000 -0.166667      21
 -0.200000 -0.100000 -0.166667      22
  0.300000 -0.200000 -0.166667      22
 -0.100000  0.300000 -0.166667      22
  0.200000 -0.300000 -0.166667      22
 -0.300000  0.100000 -0.166667      22
  0.100000  0.200000 -0.166667      22
  0.100000 -0.300000 -0.166667      22
  0.200000  0.100000 -0.166667      22
 -0.300000  0.200000 -0.166667      22
 -0.100000 -0.200000 -0.166667      22
 -0.200000  0.300000 -0.166667      22
  0.300000 -0.100000 -0.166667      22
 -0.300000 -0.100000 -0.166667      23
  0.400000 -0.300000 -0.166667      23
 -0.100000  0.400000 -0.166667      23
  0.300000 -0.400000 -0.166667      23
 -0.400000  0.100000 -0.166667      23
  0.100000  0.300000 -0.166667      23
  0.100000 -0.400000 -0.166667      23
  0.300000  0.100000 -0.166667      23
 -0.400000  0.300000 -0.166667      23
 -0.100000 -0.300000 -0.166667      23
 -0.300000  0.400000 -0.166667      23
  0.400000 -0.100000 -0.166667      23
 -0.400000 -0.100000 -0.166667      24
  0.500000 -0.400000 -0.166667      24
 -0.100000  0.500000 -0.166667      24
  0.400000 -0.500000 -0.166667      24
 -0.500000  0.100000 -0.166667      24
  0.100000  0.400000 -0.166667      24
  0.100000 -0.500000 -0.166667      24
  0.400000  0.100000 -0.166667      24
 -0.500000  0.400000 -0.166667      24
 -0.100000 -0.400000 -0.166667      24
 -0.400000  0.500000 -0.166667      24
  0.500000 -0.100000 -0.166667      24
 -0.200000 -0.200000 -0.166667      25
  0.400000 -0.200000 -0.166667      25
 -0.200000  0.400000 -0.166667      25
  0.200000 -0.400000 -0.166667      25
 -0.400000  0.200000 -0.166667      25
  0.200000  0.200000 -0.166667      25
 -0.300000 -0.200000 -0.166667      26
  0.500000 -0.300000 -0.166667      26
 -0.200000  0.500000 -0.166667      26
  0.300000 -0.500000 -0.166667      26
 -0.500000  0.200000 -0.166667      26
  0.200000  0.300000 -0.166667      26
  0.200000 -0.500000 -0.166667      26
  0.300000  0.200000 -0.166667      26
 -0.500000  0.300000 -0.166667      26
 -0.200000 -0.300000 -0.166667      26
 -0.300000  0.500000 -0.166667      26
  0.500000 -0.200000 -0.166667      26
 -0.400000 -0.200000 -0.166667      27
  0.600000 -0.400000 -0.166667      27
 -0.200000  0.600000 -0.166667      27
  0.400000 -0.600000 -0.166667      27
 -0.600000  0.200000 -0.166667      27
  0.200000  0.400000 -0.166667      27
 -0.300000 -0.300000 -0.166667      28
  0.600000 -0.300000 -0.166667      28
 -0.300000  0.600000 -0.166667      28
  0.300000 -0.600000 -0.166667      28
 -0.600000  0.300000 -0.166667      28
  0.300000  0.300000 -0.166667      28
  0.000000  0.000000 -0.333333      29
 -0.100000  0.000000 -0.333333      30
  0.100000 -0.100000 -0.333333      30
  0.000000  0.100000 -0.333333      30
  0.000000 -0.100000 -0.333333      30
  0.100000  0.000000 -0.333333      30
 -0.100000  0.100000 -0.333333      30
 -0.200000  0.000000 -0.333333      31
  0.200000 -0.200000 -0.333333      31
  0.000000  0.200000 -0.333333      31
  0.000000 -0.200000 -0.333333      31
  0.200000  0.000000 -0.333333      31
 -0.200000  0.200000 -0.333333      31
 -0.300000  0.000000 -0.333333      32
  0.300000 -0.300000 -0.333333      32
  0.000000  0.300000 -0.333333      32
  0.000000 -0.300000 -0.333333      32
  0.300000  0.000000 -0.333333      32
 -0.300000  0.300000 -0.333333      32
 -0.400000  0.000000 -0.333333      33
  0.400000 -0.400000 -0.333333      33
  0.000000  0.400000 -0.333333      33
  0.000000 -0.400000 -0.333333      33
  0.400000  0.000000 -0.333333      33
 -0.400000  0.400000 -0.333333      33
 -0.500000  0.000000 -0.333333      34
  0.500000 -0.500000 -0.333333      34
  0.000000  0.500000 -0.333333      34
 -0.100000 -0.100000 -0.333333      35
  0.200000 -0.100000 -0.333333      35
 -0.100000  0.200000 -0.333333      35
  0.100000 -0.200000 -0.333333      35
 -0.200000  0.100000 -0.333333      35
  0.100000  0.100000 -0.333333      35
 -0.200000 -0.100000 -0.333333      36
  0.300000 -0.200000 -0.333333      36
 -0.100000  0.300000 -0.333333      36
  0.200000 -0.300000 -0.333333      36
 -0.300000  0.100000 -0.333333      36
  0.100000  0.200000 -0.333333      36
  0.100000 -0.300000 -0.333333      36
  0.200000  0.100000 -0.333333      36
 -0.300000  0.200000 -0.333333      36
 -0.100000 -0.200000 -0.333333      36
 -0.200000  0.300000 -0.333333      36
  0.300000 -0.100000 -0.333333      36
 -0.300000 -0.100000 -0.333333      37
  0.400000 -0.300000 -0.333333      37
 -0.100000  0.400000 -0.333333      37
  0.300000 -0.400000 -0.333333      37
 -0.400000  0.100000 -0.333333      37
  0.100000  0.300000 -0.333333      37
  0.100000 -0.400000 -0.333333      37
  0.300000  0.100000 -0.333333      37
 -0.400000  0.300000 -0.333333      37
 -0.100000 -0.300000 -0.333333      37
 -0.300000  0.400000 -0.333333      37
  0.400000 -0.100000 -0.333333      37
 -0.400000 -0.100000 -0.333333      38
  0.500000 -0.400000 -0.333333      38
 -0.100000  0.500000 -0.333333      38
  0.400000 -0.500000 -0.333333      38
 -0.500000  0.100000 -0.333333      38
  0.100000  0.400000 -0.333333      38
  0.100000 -0.500000 -0.333333      38
  0.400000  0.100000 -0.333333      38
 -0.500000  0.400000 -0.333333      38
 -0.100000 -0.400000 -0.333333      38
 -0.400000  0.500000 -0.333333      38
  0.500000 -0.100000 -0.333333      38
 -0.200000 -0.200000 -0.333333      39
  0.400000 -0.200000 -0.333333      39
 -0.200000  0.400000 -0.333333      39
  0.200000 -0.400000 -0.333333      39
 -0.400000  0.200000 -0.333333      39
  0.200000  0.200000 -0.333333      39
 -0.300000 -0.200000 -0.333333      40
  0.500000 -0.300000 -0.333333      40
 -0.200000  0.500000 -0.333333      40
  0.300000 -0.500000 -0.333333      40
 -0.500000  0.200000 -0.333333      40
  0.200000  0.300000 -0.333333      40
  0.200000 -0.500000 -0.333333      40
  0.300000  0.200000 -0.333333      40
 -0.500000  0.300000 -0.333333      40
 -0.200000 -0.300000 -0.333333      40
 -0.300000  0.500000 -0.333333      40
  0.500000 -0.200000 -0.333333      40
 -0.400000 -0.200000 -0.333333      41
  0.600000 -0.400000 -0.333333      41
 -0.200000  0.600000 -0.333333      41
  0.400000 -0.600000 -0.333333      41
 -0.600000  0.200000 -0.333333      41
  0.200000  0.400000 -0.333333      41
 -0.300000 -0.300000 -0.333333      42
  0.600000 -0.300000 -0.333333      42
 -0.300000  0.600000 -0.333333      42
  0.300000 -0.600000 -0.333333      42
 -0.600000  0.300000 -0.333333      42
  0.300000  0.300000 -0.333333      42


--------------------------------------------------------------------------------------------------------




 Dimension of arrays:
   k-points           NKPTS =     56   k-points in BZ     NKDIM =    600   number of bands    NBANDS=    200
   number of dos      NEDOS =    301   number of ions     NIONS =      4
   non local maximal  LDIM  =      6   non local SUM 2l+1 LMDIM =     18
   total plane-waves  NPLWV =  20736
   max r-space proj   IRMAX =      1   max aug-charges    IRDMAX= 102486
   dimension x,y,z NGX =    24 NGY =   24 NGZ =   36
   dimension x,y,z NGXF=    48 NGYF=   48 NGZF=   72
   support grid    NGXF=    96 NGYF=   96 NGZF=  144
   ions per type =               2   2
 NGX,Y,Z   is equivalent  to a cutoff of  12.24, 12.24, 11.40 a.u.
 NGXF,Y,Z  is equivalent  to a cutoff of  24.47, 24.47, 22.80 a.u.


 I would recommend the setting:
   dimension x,y,z NGX =    21 NGY =   21 NGZ =   34
 SYSTEM =  ZnO                                     
 POSCAR =  POSCAR created by SUPERPOSCAR           

 Startparameter for this run:
   NWRITE =      2    write-flag & timer
   PREC   = accura    medium, high low
   ISTART =      1    job   : 0-new  1-cont  2-samecut
   ICHARG =      0    charge: 1-file 2-atom 10-const
   ISPIN  =      1    spin polarized calculation?
   LNONCOLLINEAR =      F non collinear calculations
   LSORBIT =      F    spin-orbit coupling
   INIWAV =      1    electr: 0-lowe 1-rand  2-diag
   LASPH  =      F    aspherical Exc in radial PAW
   METAGGA=      F    non-selfconsistent MetaGGA calc.

 Electronic Relaxation 1
   ENCUT  =  400.0 eV  29.40 Ry    5.42 a.u.   5.32  5.32  8.56*2*pi/ulx,y,z
   ENINI  =  400.0     initial cutoff
   ENAUG  =  605.4 eV  augmentation charge cutoff
   NELM   =      1;   NELMIN=  2; NELMDL=  0     # of ELM steps 
   EDIFF  = 0.1E-03   stopping-criterion for ELM
   LREAL  =      F    real-space projection
   LCOMPAT=      F    compatible to vasp.4.4
   LREAL_COMPAT= F    compatible to vasp.4.5.1-3
   GGA_COMPAT  = T    GGA compatible to vasp.4.4-vasp.4.6
   LMAXPAW     = -100 max onsite density
   LMAXMIX     =    4 max onsite mixed and CHGCAR
   VOSKOWN=      0    Vosko Wilk Nusair interpolation
   ROPT   =    0.00000   0.00000
 Ionic relaxation
   EDIFFG = 0.1E-02   stopping-criterion for IOM
   NSW    =      0    number of steps for IOM
   NBLOCK =      1;   KBLOCK =      1    inner block; outer block 
   IBRION =     -1    ionic relax: 0-MD 1-quasi-New 2-CG
   NFREE  =      0    steps in history (QN), initial steepest desc. (CG)
   ISIF   =      0    stress and relaxation
   IWAVPR =     10    prediction:  0-non 1-charg 2-wave 3-comb
   ISYM   =      3    0-nonsym 1-usesym 2-fastsym
   LCORR  =      T    Harris-Foulkes like correction to forces

   POTIM  = 0.5000    time-step for ionic-motion
   TEIN   =    0.0    initial temperature
   TEBEG  =    0.0;   TEEND  =   0.0 temperature during run
   SMASS  =  -3.00    Nose mass-parameter (am)
   estimated Nose-frequenzy (Omega)   =  0.10E-29 period in steps =****** mass=  -0.243E-27a.u.
   NPACO  =    256;   APACO  = 16.0  distance and # of slots for P.C.
   PSTRESS=    0.0 pullay stress

  Mass of Ions in am
   POMASS =  65.39 16.00
  Ionic Valenz
   ZVAL   =  12.00  6.00
  Atomic Wigner-Seitz radii
   RWIGS  =   1.20  1.20
   NELECT =      36.0000    total number of electrons
   NUPDOWN=      -1.0000    fix difference up-down

 DOS related values:
   EMIN   =  10.00;   EMAX   =-10.00  energy-range for DOS
   EFERMI =   0.00
   ISMEAR =     0;   SIGMA  =   0.01  broadening in eV -4-tet -1-fermi 0-gaus

 Electronic relaxation 2 (details)
   IALGO  =     38    algorithm
   LDIAG  =      T    sub-space diagonalisation
   IMIX   =      4    mixing-type and parameters
     AMIX     =   0.80;   BMIX     =  1.00
     AMIX_MAG =   0.80;   BMIX_MAG =  1.00
     AMIN     =   0.10
     WC   =   100.;   INIMIX=   1;  MIXPRE=   1

 Intra band minimization:
   WEIMIN = 0.0000     energy-eigenvalue tresh-hold
   EBREAK =  0.12E-06  absolut break condition
   DEPER  =   0.30     relativ break condition  

   TIME   =   0.40     timestep for ELM

  volume/ion in A,a.u.               =      12.08        81.54
  Fermi-wavevector in a.u.,A,eV,Ry     =   1.483970  2.804297 29.962315  2.202168
  Thomas-Fermi vector in A             =   2.597565

 Write flags
   LWAVE  =      T    write WAVECAR
   LCHARG =      T    write CHGCAR
   LVTOT  =      F    write LOCPOT, local potential
   LELF   =      F    write electronic localiz. function (ELF)
   LORBIT =     10    0 simple, 1 ext, 2 COOP (PROOUT)


 Dipole corrections
   LMONO  =      F    monopole corrections only (constant potential shift)
   LDIPOL =      F    correct potential (dipole corrections)
   IDIPOL =      0    1-x, 2-y, 3-z, 4-all directions 
   EPSILON=  1.0000000 bulk dielectric constant

 Exchange correlation treatment:
   GGA     =    --    GGA type
   LEXCH   =     8    internal setting for exchange type
   VOSKOWN=      0    Vosko Wilk Nusair interpolation
   EXXOEP  =     0    0=HF, 1=EXX-LHF (local Hartree Fock) 2=EXX OEP
   LHFCALC =     T    Hartree Fock is set to
   LRHFCALC=     F    long range Hartree Fock
   LRSCOR  =     F    long range correlation only (use DFT for short range part)
   LTHOMAS =     F    Thomas Fermi screening in HF
   LMODELHF=     F    short range full HF, long range fraction AEXX
   ENCUTFOCK=  -1.0   cutoff for exchange potential in eV
   ENCUT4O =  -1.0   cutoff for four orbital integrals eV
   LMAXFOCK=     4    L truncation for augmentation on plane wave grid
   LMAXFOCKAE=   4    L truncation for all-electron charge restoration on plane wave grid
   NMAXFOCKAE=   1    number of basis functions for all-electron charge restoration
   NKREDX  =     2    reduce k-point grid by
   NKREDY  =     2    reduce k-point grid by
   NKREDZ  =     2    reduce k-point grid by
   SHIFTRED=     F    shift reduced grid of Gamma
   HFKIDENT=     F    idential grid for each k-point
   ODDONLY =     F    use only odd q-grid points
   EVENONLY=     F    use only even q-grid points
   HFALPHA =   -1.0000 decay constant for conv. correction
   AEXX    =    1.0000 exact exchange contribution
   HFSCREEN=    0.0000 screening length (either q_TF or 0.3 A-1)
   HFSCREENC=   0.0000 screening length for correlation (either q_TF or 0.3 A-1)
   HFRCUT  =    0.0000 spherical cutoff for potential kernel
   ALDAX   =    0.0000 LDA exchange part
   AGGAX   =    0.0000 GGA exchange part
   ALDAC   =    0.0000 LDA correlation
   AGGAC   =    0.0000 GGA correlation

 Linear response parameters
   LEPSILON=     F    determine dielectric tensor
   LRPA    =     F    only Hartree local field effects (RPA)
   LNABLA  =     F    use nabla operator in PAW spheres
   LVEL    =     F    velocity operator in full k-point grid
   LINTERFAST=   F  fast interpolation
   KINTER  =     0    interpolate to denser k-point grid
   CSHIFT  =0.1000    complex shift for real part using Kramers Kronig
   OMEGAMAX=  -1.0    maximum frequency

 Orbital magnetization related:
   ORBITALMAG=     F  switch on orbital magnetization
   LCHIMAG   =     F  perturbation theory with respect to B field

 Response functions by sum over occupied states:
   ALGO    =GW0       execute GW part
   LRPA    =     T    random phase (Hartree local field effects only)
   LTCTE   =     F    use test-charge test-electron dielectric function
   LTETE   =     F    use test-electron test-electron dielectric function
   L2ORDER =     F    2nd order terms only
   LGWLF   =     F    use screened W for local field effects
   ENCUTGW = 120.0    cutoff for response function in eV
   ENCUTGWSOFT = 120.0 soft cutoff for Coulomb kernel in GW response function in eV
   ENCUTLF =  -1.0    cutoff for local field effects
   LMAXMP2 =    -1    maximum L for one center terms
   SCISSOR =   0.0    scissor correction
   NOMEGA  =    64    number of frequencies
   NOMEGAR =    64    number of frequencies along real axis
   NBANDSGW=    -1    number of bands for which selfenergy shift is calculated
   NBANDSLF=    -1    number of bands for electron-hole treatment
   NELM    =     1    number of iterations in solving QP equation
   DIM     =     3    dimensionality of system (0=0D molecules, 3=3D)
   ANTIRES =     0    antiresonant part (0) no TDA (1) w=0 exact (2) accurate
   LUSEW   =     F    use W in vertex corrections (instead of screened exchange pot.)
   OMEGAMAX= -30.0    maximum frequency
   OMEGATL =-200.0    maximum frequency of tail
   OMEGAGRID=     0    grid type (0 default)
   CSHIFT  =-0.100    complex shift used in evaluation of response functions
   SELFENERGY=   F    calculate selfenergy instead of QP shifts
   LSPECTRAL =   T    use spectral functions                   

   ODDONLYGW =   F    avoid all even points for polarizability 
   EVENONLYGW=   F    avoid all odd  points for polarizability 
   NKREDLFX  =   1   NKREDLFY  =   1   NKREDLFZ  =   1

   TELESCOPE =   0   use telescope k-point sampling




--------------------------------------------------------------------------------------------------------


 Static calculation
 charge density and potential will be updated during run
 non-spin polarized calculation
 Variant of blocked Davidson
 Davidson routine will perform the subspace rotation
 perform sub-space diagonalisation
    after iterative eigenvector-optimisation
 modified Broyden-mixing scheme, WC =      100.0
 initial mixing is a Kerker type mixing with AMIX =  0.8000 and BMIX =      1.0000
 Hartree-type preconditioning will be used
 using additional bands           182
 reciprocal scheme for non local part
 use partial core corrections
 calculate Harris-corrections to forces 
   (improved forces if not selfconsistent)
 use gradient corrections 
 use of overlap-Matrix (Vanderbilt PP)
 Gauss-broadening in eV      SIGMA  =   0.01


--------------------------------------------------------------------------------------------------------


  energy-cutoff  :      400.00
  volume of cell :       48.3338
      direct lattice vectors                 reciprocal lattice vectors
     1.630270000 -2.823710458  0.000000000     0.306697664 -0.177071979  0.000000000
     1.630270000  2.823710458  0.000000000     0.306697664  0.177071979  0.000000000
     0.000000000  0.000000000  5.249786324     0.000000000  0.000000000  0.190483943

  length of vectors
     3.260539989  3.260539989  5.249786324     0.354143958  0.354143958  0.190483943



 old parameters found on file WAVECAR:
  energy-cutoff  :      400.00
  volume of cell :       48.3338
      direct lattice vectors                 reciprocal lattice vectors
     1.630270000 -2.823710458  0.000000000     0.306697664 -0.177071979  0.000000000
     1.630270000  2.823710458  0.000000000     0.306697664  0.177071979  0.000000000
     0.000000000  0.000000000  5.249786324     0.000000000  0.000000000  0.190483943

  length of vectors


 k-points in units of 2pi/SCALE and weight: Automatic generation                    
   0.00000000  0.00000000  0.00000000       0.002
   0.10000000 -0.05773503  0.00000000       0.010
   0.20000000 -0.11547005  0.00000000       0.010
   0.30000000 -0.17320508  0.00000000       0.010
   0.40000000 -0.23094011  0.00000000       0.010
   0.50000000 -0.28867514  0.00000000       0.005
   0.20000000  0.00000000  0.00000000       0.010
   0.30000000 -0.05773503  0.00000000       0.020
   0.40000000 -0.11547005  0.00000000       0.020
   0.50000000 -0.17320508  0.00000000       0.020
   0.40000000  0.00000000  0.00000000       0.010
   0.50000000 -0.05773503  0.00000000       0.020
   0.60000000 -0.11547005  0.00000000       0.010
   0.60000000  0.00000000  0.00000000       0.010
   0.00000000  0.00000000  0.10351342       0.003
   0.10000000 -0.05773503  0.10351342       0.020
   0.20000000 -0.11547005  0.10351342       0.020
   0.30000000 -0.17320508  0.10351342       0.020
   0.40000000 -0.23094011  0.10351342       0.020
   0.50000000 -0.28867514  0.10351342       0.010
   0.20000000  0.00000000  0.10351342       0.020
   0.30000000 -0.05773503  0.10351342       0.040
   0.40000000 -0.11547005  0.10351342       0.040
   0.50000000 -0.17320508  0.10351342       0.040
   0.40000000  0.00000000  0.10351342       0.020
   0.50000000 -0.05773503  0.10351342       0.040
   0.60000000 -0.11547005  0.10351342       0.020
   0.60000000  0.00000000  0.10351342       0.020
   0.00000000  0.00000000  0.20702684       0.003
   0.10000000 -0.05773503  0.20702684       0.020
   0.20000000 -0.11547005  0.20702684       0.020
   0.30000000 -0.17320508  0.20702684       0.020
   0.40000000 -0.23094011  0.20702684       0.020
   0.50000000 -0.28867514  0.20702684       0.010
   0.20000000  0.00000000  0.20702684       0.020
   0.30000000 -0.05773503  0.20702684       0.040
   0.40000000 -0.11547005  0.20702684       0.040
   0.50000000 -0.17320508  0.20702684       0.040
   0.40000000  0.00000000  0.20702684       0.020
   0.50000000 -0.05773503  0.20702684       0.040
   0.60000000 -0.11547005  0.20702684       0.020
   0.60000000  0.00000000  0.20702684       0.020
   0.00000000  0.00000000  0.31054026       0.002
   0.10000000 -0.05773503  0.31054026       0.010
   0.20000000 -0.11547005  0.31054026       0.010
   0.30000000 -0.17320508  0.31054026       0.010
   0.40000000 -0.23094011  0.31054026       0.010
   0.50000000 -0.28867514  0.31054026       0.005
   0.20000000  0.00000000  0.31054026       0.010
   0.30000000 -0.05773503  0.31054026       0.020
   0.40000000 -0.11547005  0.31054026       0.020
   0.50000000 -0.17320508  0.31054026       0.020
   0.40000000  0.00000000  0.31054026       0.010
   0.50000000 -0.05773503  0.31054026       0.020
   0.60000000 -0.11547005  0.31054026       0.010
   0.60000000  0.00000000  0.31054026       0.010

 k-points in reciprocal lattice and weights: Automatic generation                    
   0.00000000  0.00000000  0.00000000       0.002
   0.10000000  0.00000000  0.00000000       0.010
   0.20000000  0.00000000  0.00000000       0.010
   0.30000000  0.00000000  0.00000000       0.010
   0.40000000  0.00000000  0.00000000       0.010
   0.50000000  0.00000000  0.00000000       0.005
   0.10000000  0.10000000  0.00000000       0.010
   0.20000000  0.10000000  0.00000000       0.020
   0.30000000  0.10000000  0.00000000       0.020
   0.40000000  0.10000000  0.00000000       0.020
   0.20000000  0.20000000  0.00000000       0.010
   0.30000000  0.20000000  0.00000000       0.020
   0.40000000  0.20000000  0.00000000       0.010
   0.30000000  0.30000000  0.00000000       0.010
   0.00000000  0.00000000  0.16666667       0.003
   0.10000000  0.00000000  0.16666667       0.020
   0.20000000  0.00000000  0.16666667       0.020
   0.30000000  0.00000000  0.16666667       0.020
   0.40000000  0.00000000  0.16666667       0.020
   0.50000000  0.00000000  0.16666667       0.010
   0.10000000  0.10000000  0.16666667       0.020
   0.20000000  0.10000000  0.16666667       0.040
   0.30000000  0.10000000  0.16666667       0.040
   0.40000000  0.10000000  0.16666667       0.040
   0.20000000  0.20000000  0.16666667       0.020
   0.30000000  0.20000000  0.16666667       0.040
   0.40000000  0.20000000  0.16666667       0.020
   0.30000000  0.30000000  0.16666667       0.020
   0.00000000  0.00000000  0.33333333       0.003
   0.10000000  0.00000000  0.33333333       0.020
   0.20000000  0.00000000  0.33333333       0.020
   0.30000000  0.00000000  0.33333333       0.020
   0.40000000  0.00000000  0.33333333       0.020
   0.50000000  0.00000000  0.33333333       0.010
   0.10000000  0.10000000  0.33333333       0.020
   0.20000000  0.10000000  0.33333333       0.040
   0.30000000  0.10000000  0.33333333       0.040
   0.40000000  0.10000000  0.33333333       0.040
   0.20000000  0.20000000  0.33333333       0.020
   0.30000000  0.20000000  0.33333333       0.040
   0.40000000  0.20000000  0.33333333       0.020
   0.30000000  0.30000000  0.33333333       0.020
   0.00000000  0.00000000  0.50000000       0.002
   0.10000000  0.00000000  0.50000000       0.010
   0.20000000  0.00000000  0.50000000       0.010
   0.30000000  0.00000000  0.50000000       0.010
   0.40000000  0.00000000  0.50000000       0.010
   0.50000000  0.00000000  0.50000000       0.005
   0.10000000  0.10000000  0.50000000       0.010
   0.20000000  0.10000000  0.50000000       0.020
   0.30000000  0.10000000  0.50000000       0.020
   0.40000000  0.10000000  0.50000000       0.020
   0.20000000  0.20000000  0.50000000       0.010
   0.30000000  0.20000000  0.50000000       0.020
   0.40000000  0.20000000  0.50000000       0.010
   0.30000000  0.30000000  0.50000000       0.010

 position of ions in fractional coordinates (direct lattice) 
   0.00000000  0.00000000  0.99981500
   0.33333340  0.66666670  0.49981500
   0.33333340  0.66666670  0.87978500
   0.00000000  0.00000000  0.37978500

 position of ions in cartesian coordinates  (Angst):
   0.00000000  0.00000000  5.24881511
   1.63027016  0.94123673  2.62392195
   1.63027016  0.94123673  4.61868326
   0.00000000  0.00000000  1.99379010



--------------------------------------------------------------------------------------------------------


 k-point  1 :  0.00000.00000.0000  plane waves:     881
 k-point  2 :  0.10000.00000.0000  plane waves:     881
 k-point  3 :  0.20000.00000.0000  plane waves:     873
 k-point  4 :  0.30000.00000.0000  plane waves:     871
 k-point  5 :  0.40000.00000.0000  plane waves:     884
 k-point  6 :  0.50000.00000.0000  plane waves:     884
 k-point  7 :  0.10000.10000.0000  plane waves:     885
 k-point  8 :  0.20000.10000.0000  plane waves:     872
 k-point  9 :  0.30000.10000.0000  plane waves:     872
 k-point 10 :  0.40000.10000.0000  plane waves:     882
 k-point 11 :  0.20000.20000.0000  plane waves:     879
 k-point 12 :  0.30000.20000.0000  plane waves:     881
 k-point 13 :  0.40000.20000.0000  plane waves:     880
 k-point 14 :  0.30000.30000.0000  plane waves:     887
 k-point 15 :  0.00000.00000.1667  plane waves:     887
 k-point 16 :  0.10000.00000.1667  plane waves:     882
 k-point 17 :  0.20000.00000.1667  plane waves:     884
 k-point 18 :  0.30000.00000.1667  plane waves:     872
 k-point 19 :  0.40000.00000.1667  plane waves:     879
 k-point 20 :  0.50000.00000.1667  plane waves:     890
 k-point 21 :  0.10000.10000.1667  plane waves:     887
 k-point 22 :  0.20000.10000.1667  plane waves:     875
 k-point 23 :  0.30000.10000.1667  plane waves:     881
 k-point 24 :  0.40000.10000.1667  plane waves:     878
 k-point 25 :  0.20000.20000.1667  plane waves:     880
 k-point 26 :  0.30000.20000.1667  plane waves:     877
 k-point 27 :  0.40000.20000.1667  plane waves:     875
 k-point 28 :  0.30000.30000.1667  plane waves:     875
 k-point 29 :  0.00000.00000.3333  plane waves:     887
 k-point 30 :  0.10000.00000.3333  plane waves:     879
 k-point 31 :  0.20000.00000.3333  plane waves:     880
 k-point 32 :  0.30000.00000.3333  plane waves:     881
 k-point 33 :  0.40000.00000.3333  plane waves:     877
 k-point 34 :  0.50000.00000.3333  plane waves:     878
 k-point 35 :  0.10000.10000.3333  plane waves:     883
 k-point 36 :  0.20000.10000.3333  plane waves:     882
 k-point 37 :  0.30000.10000.3333  plane waves:     876
 k-point 38 :  0.40000.10000.3333  plane waves:     878
 k-point 39 :  0.20000.20000.3333  plane waves:     876
 k-point 40 :  0.30000.20000.3333  plane waves:     873
 k-point 41 :  0.40000.20000.3333  plane waves:     870
 k-point 42 :  0.30000.30000.3333  plane waves:     871
 k-point 43 :  0.00000.00000.5000  plane waves:     882
 k-point 44 :  0.10000.00000.5000  plane waves:     878
 k-point 45 :  0.20000.00000.5000  plane waves:     898
 k-point 46 :  0.30000.00000.5000  plane waves:     886
 k-point 47 :  0.40000.00000.5000  plane waves:     874
 k-point 48 :  0.50000.00000.5000  plane waves:     880
 k-point 49 :  0.10000.10000.5000  plane waves:     880
 k-point 50 :  0.20000.10000.5000  plane waves:     880
 k-point 51 :  0.30000.10000.5000  plane waves:     872
 k-point 52 :  0.40000.10000.5000  plane waves:     874
 k-point 53 :  0.20000.20000.5000  plane waves:     872
 k-point 54 :  0.30000.20000.5000  plane waves:     872
 k-point 55 :  0.40000.20000.5000  plane waves:     872
 k-point 56 :  0.30000.30000.5000  plane waves:     870

 maximum and minimum number of plane-waves per node :     898    870

 maximum number of plane-waves:     898
 maximal index in each direction: 
   IXMAX=  5   IYMAX=  5   IZMAX=  8
   IXMIN= -5   IYMIN= -5   IZMIN= -9

 NGX is ok and might be reduce to  22
 NGY is ok and might be reduce to  22
 NGZ is ok and might be reduce to  36

 serial   3D FFT for wavefunctions
 parallel 3D FFT for charge:
    minimum data exchange during FFTs selected (reduces bandwidth)


 total amount of memory used by VASP on root node  75633. kBytes
========================================================================

   base      :    30000. kBytes
   nonl-proj :    14637. kBytes
   fftplans  :     3148. kBytes
   grid      :     4345. kBytes
   one-center:       62. kBytes
   HF        :      259. kBytes
   nonlr-proj:     1678. kBytes
   wavefun   :    21504. kBytes

 Broyden mixing: mesh for mixing (old mesh)
   NGX = 11   NGY = 11   NGZ = 17
  (NGX  = 48   NGY  = 48   NGZ  = 72)
  gives a total of   2057 points

 charge density for first step will be calculated from the start-wavefunctions


--------------------------------------------------------------------------------------------------------


 Maximum index for augmentation-charges         12283 (set IRDMAX)


--------------------------------------------------------------------------------------------------------


 initial charge from wavefunction
    FEWALD:  cpu time    0.00: real time    0.00
 Response functions by sum over occupied states:
 ===============================================
   NOMEGA  =    64    number of frequencies
   NOMEGAR =    64    number of frequencies along real axis
   OMEGAMAX=  15.12   maximum frequency
   OMEGATL = 257.23   maximum frequency of tail
   CSHIFT  =  0.307   complex shift used in evaluation of response functions


 Energies w= 
 ============
   0.0   0.0   0.5   0.0   1.0   0.0   1.6   0.0   2.1   0.0
   2.6   0.0   3.1   0.0   3.6   0.0   4.1   0.0   4.5   0.0
   5.0   0.0   5.5   0.0   6.0   0.0   6.4   0.0   6.9   0.0
   7.3   0.0   7.8   0.0   8.2   0.0   8.6   0.0   9.1   0.0
   9.5   0.0   9.9   0.0  10.3   0.0  10.8   0.0  11.2   0.0
  11.7   0.0  12.1   0.0  12.5   0.0  13.0   0.0  13.5   0.0
  13.9   0.0  14.4   0.0  14.9   0.0  15.5   0.0  16.0   0.0
  16.6   0.0  17.2   0.0  17.8   0.0  18.4   0.0  19.1   0.0
  19.8   0.0  20.6   0.0  21.5   0.0  22.4   0.0  23.4   0.0
  24.4   0.0  25.6   0.0  26.9   0.0  28.4   0.0  30.0   0.0
  31.9   0.0  34.0   0.0  36.4   0.0  39.3   0.0  42.7   0.0
  46.8   0.0  51.9   0.0  58.3   0.0  66.7   0.0  78.0   0.0
  94.2   0.0 119.2   0.0 162.8   0.0 257.2   0.0


IMPORTANT INFORMATION: All symmetrisations will be switched off!
NOSYMM: (Re-)initialisation of all symmetry stuff for point group C_1.


 KPOINTS: Automatic generation                    

Automatic generation of k-mesh.
 
 Subroutine IBZKPT returns following result:
 ===========================================
 
 Found    600 irreducible k-points:
 
 Following reciprocal coordinates:
            Coordinates               Weight
  0.000000  0.000000  0.000000      1.000000
  0.100000  0.000000  0.000000      1.000000
  0.200000  0.000000  0.000000      1.000000
  0.300000  0.000000  0.000000      1.000000
  0.400000  0.000000  0.000000      1.000000
  0.500000  0.000000  0.000000      1.000000
 -0.400000  0.000000  0.000000      1.000000
 -0.300000  0.000000  0.000000      1.000000
 -0.200000  0.000000  0.000000      1.000000
 -0.100000  0.000000  0.000000      1.000000
  0.000000  0.100000  0.000000      1.000000
  0.100000  0.100000  0.000000      1.000000
  0.200000  0.100000  0.000000      1.000000
  0.300000  0.100000  0.000000      1.000000
  0.400000  0.100000  0.000000      1.000000
  0.500000  0.100000  0.000000      1.000000
 -0.400000  0.100000  0.000000      1.000000
 -0.300000  0.100000  0.000000      1.000000
 -0.200000  0.100000  0.000000      1.000000
 -0.100000  0.100000  0.000000      1.000000
  0.000000  0.200000  0.000000      1.000000
  0.100000  0.200000  0.000000      1.000000
  0.200000  0.200000  0.000000      1.000000
  0.300000  0.200000  0.000000      1.000000
  0.400000  0.200000  0.000000      1.000000
  0.500000  0.200000  0.000000      1.000000
 -0.400000  0.200000  0.000000      1.000000
 -0.300000  0.200000  0.000000      1.000000
 -0.200000  0.200000  0.000000      1.000000
 -0.100000  0.200000  0.000000      1.000000
  0.000000  0.300000  0.000000      1.000000
  0.100000  0.300000  0.000000      1.000000
  0.200000  0.300000  0.000000      1.000000
  0.300000  0.300000  0.000000      1.000000
  0.400000  0.300000  0.000000      1.000000
  0.500000  0.300000  0.000000      1.000000
 -0.400000  0.300000  0.000000      1.000000
 -0.300000  0.300000  0.000000      1.000000
 -0.200000  0.300000  0.000000      1.000000
 -0.100000  0.300000  0.000000      1.000000
  0.000000  0.400000  0.000000      1.000000
  0.100000  0.400000  0.000000      1.000000
  0.200000  0.400000  0.000000      1.000000
  0.300000  0.400000  0.000000      1.000000
  0.400000  0.400000  0.000000      1.000000
  0.500000  0.400000  0.000000      1.000000
 -0.400000  0.400000  0.000000      1.000000
 -0.300000  0.400000  0.000000      1.000000
 -0.200000  0.400000  0.000000      1.000000
 -0.100000  0.400000  0.000000      1.000000
  0.000000  0.500000  0.000000      1.000000
  0.100000  0.500000  0.000000      1.000000
  0.200000  0.500000  0.000000      1.000000
  0.300000  0.500000  0.000000      1.000000
  0.400000  0.500000  0.000000      1.000000
  0.500000  0.500000  0.000000      1.000000
 -0.400000  0.500000  0.000000      1.000000
 -0.300000  0.500000  0.000000      1.000000
 -0.200000  0.500000  0.000000      1.000000
 -0.100000  0.500000  0.000000      1.000000
  0.000000 -0.400000  0.000000      1.000000
  0.100000 -0.400000  0.000000      1.000000
  0.200000 -0.400000  0.000000      1.000000
  0.300000 -0.400000  0.000000      1.000000
  0.400000 -0.400000  0.000000      1.000000
  0.500000 -0.400000  0.000000      1.000000
 -0.400000 -0.400000  0.000000      1.000000
 -0.300000 -0.400000  0.000000      1.000000
 -0.200000 -0.400000  0.000000      1.000000
 -0.100000 -0.400000  0.000000      1.000000
  0.000000 -0.300000  0.000000      1.000000
  0.100000 -0.300000  0.000000      1.000000
  0.200000 -0.300000  0.000000      1.000000
  0.300000 -0.300000  0.000000      1.000000
  0.400000 -0.300000  0.000000      1.000000
  0.500000 -0.300000  0.000000      1.000000
 -0.400000 -0.300000  0.000000      1.000000
 -0.300000 -0.300000  0.000000      1.000000
 -0.200000 -0.300000  0.000000      1.000000
 -0.100000 -0.300000  0.000000      1.000000
  0.000000 -0.200000  0.000000      1.000000
  0.100000 -0.200000  0.000000      1.000000
  0.200000 -0.200000  0.000000      1.000000
  0.300000 -0.200000  0.000000      1.000000
  0.400000 -0.200000  0.000000      1.000000
  0.500000 -0.200000  0.000000      1.000000
 -0.400000 -0.200000  0.000000      1.000000
 -0.300000 -0.200000  0.000000      1.000000
 -0.200000 -0.200000  0.000000      1.000000
 -0.100000 -0.200000  0.000000      1.000000
  0.000000 -0.100000  0.000000      1.000000
  0.100000 -0.100000  0.000000      1.000000
  0.200000 -0.100000  0.000000      1.000000
  0.300000 -0.100000  0.000000      1.000000
  0.400000 -0.100000  0.000000      1.000000
  0.500000 -0.100000  0.000000      1.000000
 -0.400000 -0.100000  0.000000      1.000000
 -0.300000 -0.100000  0.000000      1.000000
 -0.200000 -0.100000  0.000000      1.000000
 -0.100000 -0.100000  0.000000      1.000000
  0.000000  0.000000  0.166667      1.000000
  0.100000  0.000000  0.166667      1.000000
  0.200000  0.000000  0.166667      1.000000
  0.300000  0.000000  0.166667      1.000000
  0.400000  0.000000  0.166667      1.000000
  0.500000  0.000000  0.166667      1.000000
 -0.400000  0.000000  0.166667      1.000000
 -0.300000  0.000000  0.166667      1.000000
 -0.200000  0.000000  0.166667      1.000000
 -0.100000  0.000000  0.166667      1.000000
  0.000000  0.100000  0.166667      1.000000
  0.100000  0.100000  0.166667      1.000000
  0.200000  0.100000  0.166667      1.000000
  0.300000  0.100000  0.166667      1.000000
  0.400000  0.100000  0.166667      1.000000
  0.500000  0.100000  0.166667      1.000000
 -0.400000  0.100000  0.166667      1.000000
 -0.300000  0.100000  0.166667      1.000000
 -0.200000  0.100000  0.166667      1.000000
 -0.100000  0.100000  0.166667      1.000000
  0.000000  0.200000  0.166667      1.000000
  0.100000  0.200000  0.166667      1.000000
  0.200000  0.200000  0.166667      1.000000
  0.300000  0.200000  0.166667      1.000000
  0.400000  0.200000  0.166667      1.000000
  0.500000  0.200000  0.166667      1.000000
 -0.400000  0.200000  0.166667      1.000000
 -0.300000  0.200000  0.166667      1.000000
 -0.200000  0.200000  0.166667      1.000000
 -0.100000  0.200000  0.166667      1.000000
  0.000000  0.300000  0.166667      1.000000
  0.100000  0.300000  0.166667      1.000000
  0.200000  0.300000  0.166667      1.000000
  0.300000  0.300000  0.166667      1.000000
  0.400000  0.300000  0.166667      1.000000
  0.500000  0.300000  0.166667      1.000000
 -0.400000  0.300000  0.166667      1.000000
 -0.300000  0.300000  0.166667      1.000000
 -0.200000  0.300000  0.166667      1.000000
 -0.100000  0.300000  0.166667      1.000000
  0.000000  0.400000  0.166667      1.000000
  0.100000  0.400000  0.166667      1.000000
  0.200000  0.400000  0.166667      1.000000
  0.300000  0.400000  0.166667      1.000000
  0.400000  0.400000  0.166667      1.000000
  0.500000  0.400000  0.166667      1.000000
 -0.400000  0.400000  0.166667      1.000000
 -0.300000  0.400000  0.166667      1.000000
 -0.200000  0.400000  0.166667      1.000000
 -0.100000  0.400000  0.166667      1.000000
  0.000000  0.500000  0.166667      1.000000
  0.100000  0.500000  0.166667      1.000000
  0.200000  0.500000  0.166667      1.000000
  0.300000  0.500000  0.166667      1.000000
  0.400000  0.500000  0.166667      1.000000
  0.500000  0.500000  0.166667      1.000000
 -0.400000  0.500000  0.166667      1.000000
 -0.300000  0.500000  0.166667      1.000000
 -0.200000  0.500000  0.166667      1.000000
 -0.100000  0.500000  0.166667      1.000000
  0.000000 -0.400000  0.166667      1.000000
  0.100000 -0.400000  0.166667      1.000000
  0.200000 -0.400000  0.166667      1.000000
  0.300000 -0.400000  0.166667      1.000000
  0.400000 -0.400000  0.166667      1.000000
  0.500000 -0.400000  0.166667      1.000000
 -0.400000 -0.400000  0.166667      1.000000
 -0.300000 -0.400000  0.166667      1.000000
 -0.200000 -0.400000  0.166667      1.000000
 -0.100000 -0.400000  0.166667      1.000000
  0.000000 -0.300000  0.166667      1.000000
  0.100000 -0.300000  0.166667      1.000000
  0.200000 -0.300000  0.166667      1.000000
  0.300000 -0.300000  0.166667      1.000000
  0.400000 -0.300000  0.166667      1.000000
  0.500000 -0.300000  0.166667      1.000000
 -0.400000 -0.300000  0.166667      1.000000
 -0.300000 -0.300000  0.166667      1.000000
 -0.200000 -0.300000  0.166667      1.000000
 -0.100000 -0.300000  0.166667      1.000000
  0.000000 -0.200000  0.166667      1.000000
  0.100000 -0.200000  0.166667      1.000000
  0.200000 -0.200000  0.166667      1.000000
  0.300000 -0.200000  0.166667      1.000000
  0.400000 -0.200000  0.166667      1.000000
  0.500000 -0.200000  0.166667      1.000000
 -0.400000 -0.200000  0.166667      1.000000
 -0.300000 -0.200000  0.166667      1.000000
 -0.200000 -0.200000  0.166667      1.000000
 -0.100000 -0.200000  0.166667      1.000000
  0.000000 -0.100000  0.166667      1.000000
  0.100000 -0.100000  0.166667      1.000000
  0.200000 -0.100000  0.166667      1.000000
  0.300000 -0.100000  0.166667      1.000000
  0.400000 -0.100000  0.166667      1.000000
  0.500000 -0.100000  0.166667      1.000000
 -0.400000 -0.100000  0.166667      1.000000
 -0.300000 -0.100000  0.166667      1.000000
 -0.200000 -0.100000  0.166667      1.000000
 -0.100000 -0.100000  0.166667      1.000000
  0.000000  0.000000  0.333333      1.000000
  0.100000  0.000000  0.333333      1.000000
  0.200000  0.000000  0.333333      1.000000
  0.300000  0.000000  0.333333      1.000000
  0.400000  0.000000  0.333333      1.000000
  0.500000  0.000000  0.333333      1.000000
 -0.400000  0.000000  0.333333      1.000000
 -0.300000  0.000000  0.333333      1.000000
 -0.200000  0.000000  0.333333      1.000000
 -0.100000  0.000000  0.333333      1.000000
  0.000000  0.100000  0.333333      1.000000
  0.100000  0.100000  0.333333      1.000000
  0.200000  0.100000  0.333333      1.000000
  0.300000  0.100000  0.333333      1.000000
  0.400000  0.100000  0.333333      1.000000
  0.500000  0.100000  0.333333      1.000000
 -0.400000  0.100000  0.333333      1.000000
 -0.300000  0.100000  0.333333      1.000000
 -0.200000  0.100000  0.333333      1.000000
 -0.100000  0.100000  0.333333      1.000000
  0.000000  0.200000  0.333333      1.000000
  0.100000  0.200000  0.333333      1.000000
  0.200000  0.200000  0.333333      1.000000
  0.300000  0.200000  0.333333      1.000000
  0.400000  0.200000  0.333333      1.000000
  0.500000  0.200000  0.333333      1.000000
 -0.400000  0.200000  0.333333      1.000000
 -0.300000  0.200000  0.333333      1.000000
 -0.200000  0.200000  0.333333      1.000000
 -0.100000  0.200000  0.333333      1.000000
  0.000000  0.300000  0.333333      1.000000
  0.100000  0.300000  0.333333      1.000000
  0.200000  0.300000  0.333333      1.000000
  0.300000  0.300000  0.333333      1.000000
  0.400000  0.300000  0.333333      1.000000
  0.500000  0.300000  0.333333      1.000000
 -0.400000  0.300000  0.333333      1.000000
 -0.300000  0.300000  0.333333      1.000000
 -0.200000  0.300000  0.333333      1.000000
 -0.100000  0.300000  0.333333      1.000000
  0.000000  0.400000  0.333333      1.000000
  0.100000  0.400000  0.333333      1.000000
  0.200000  0.400000  0.333333      1.000000
  0.300000  0.400000  0.333333      1.000000
  0.400000  0.400000  0.333333      1.000000
  0.500000  0.400000  0.333333      1.000000
 -0.400000  0.400000  0.333333      1.000000
 -0.300000  0.400000  0.333333      1.000000
 -0.200000  0.400000  0.333333      1.000000
 -0.100000  0.400000  0.333333      1.000000
  0.000000  0.500000  0.333333      1.000000
  0.100000  0.500000  0.333333      1.000000
  0.200000  0.500000  0.333333      1.000000
  0.300000  0.500000  0.333333      1.000000
  0.400000  0.500000  0.333333      1.000000
  0.500000  0.500000  0.333333      1.000000
 -0.400000  0.500000  0.333333      1.000000
 -0.300000  0.500000  0.333333      1.000000
 -0.200000  0.500000  0.333333      1.000000
 -0.100000  0.500000  0.333333      1.000000
  0.000000 -0.400000  0.333333      1.000000
  0.100000 -0.400000  0.333333      1.000000
  0.200000 -0.400000  0.333333      1.000000
  0.300000 -0.400000  0.333333      1.000000
  0.400000 -0.400000  0.333333      1.000000
  0.500000 -0.400000  0.333333      1.000000
 -0.400000 -0.400000  0.333333      1.000000
 -0.300000 -0.400000  0.333333      1.000000
 -0.200000 -0.400000  0.333333      1.000000
 -0.100000 -0.400000  0.333333      1.000000
  0.000000 -0.300000  0.333333      1.000000
  0.100000 -0.300000  0.333333      1.000000
  0.200000 -0.300000  0.333333      1.000000
  0.300000 -0.300000  0.333333      1.000000
  0.400000 -0.300000  0.333333      1.000000
  0.500000 -0.300000  0.333333      1.000000
 -0.400000 -0.300000  0.333333      1.000000
 -0.300000 -0.300000  0.333333      1.000000
 -0.200000 -0.300000  0.333333      1.000000
 -0.100000 -0.300000  0.333333      1.000000
  0.000000 -0.200000  0.333333      1.000000
  0.100000 -0.200000  0.333333      1.000000
  0.200000 -0.200000  0.333333      1.000000
  0.300000 -0.200000  0.333333      1.000000
  0.400000 -0.200000  0.333333      1.000000
  0.500000 -0.200000  0.333333      1.000000
 -0.400000 -0.200000  0.333333      1.000000
 -0.300000 -0.200000  0.333333      1.000000
 -0.200000 -0.200000  0.333333      1.000000
 -0.100000 -0.200000  0.333333      1.000000
  0.000000 -0.100000  0.333333      1.000000
  0.100000 -0.100000  0.333333      1.000000
  0.200000 -0.100000  0.333333      1.000000
  0.300000 -0.100000  0.333333      1.000000
  0.400000 -0.100000  0.333333      1.000000
  0.500000 -0.100000  0.333333      1.000000
 -0.400000 -0.100000  0.333333      1.000000
 -0.300000 -0.100000  0.333333      1.000000
 -0.200000 -0.100000  0.333333      1.000000
 -0.100000 -0.100000  0.333333      1.000000
  0.000000  0.000000  0.500000      1.000000
  0.100000  0.000000  0.500000      1.000000
  0.200000  0.000000  0.500000      1.000000
  0.300000  0.000000  0.500000      1.000000
  0.400000  0.000000  0.500000      1.000000
  0.500000  0.000000  0.500000      1.000000
 -0.400000  0.000000  0.500000      1.000000
 -0.300000  0.000000  0.500000      1.000000
 -0.200000  0.000000  0.500000      1.000000
 -0.100000  0.000000  0.500000      1.000000
  0.000000  0.100000  0.500000      1.000000
  0.100000  0.100000  0.500000      1.000000
  0.200000  0.100000  0.500000      1.000000
  0.300000  0.100000  0.500000      1.000000
  0.400000  0.100000  0.500000      1.000000
  0.500000  0.100000  0.500000      1.000000
 -0.400000  0.100000  0.500000      1.000000
 -0.300000  0.100000  0.500000      1.000000
 -0.200000  0.100000  0.500000      1.000000
 -0.100000  0.100000  0.500000      1.000000
  0.000000  0.200000  0.500000      1.000000
  0.100000  0.200000  0.500000      1.000000
  0.200000  0.200000  0.500000      1.000000
  0.300000  0.200000  0.500000      1.000000
  0.400000  0.200000  0.500000      1.000000
  0.500000  0.200000  0.500000      1.000000
 -0.400000  0.200000  0.500000      1.000000
 -0.300000  0.200000  0.500000      1.000000
 -0.200000  0.200000  0.500000      1.000000
 -0.100000  0.200000  0.500000      1.000000
  0.000000  0.300000  0.500000      1.000000
  0.100000  0.300000  0.500000      1.000000
  0.200000  0.300000  0.500000      1.000000
  0.300000  0.300000  0.500000      1.000000
  0.400000  0.300000  0.500000      1.000000
  0.500000  0.300000  0.500000      1.000000
 -0.400000  0.300000  0.500000      1.000000
 -0.300000  0.300000  0.500000      1.000000
 -0.200000  0.300000  0.500000      1.000000
 -0.100000  0.300000  0.500000      1.000000
  0.000000  0.400000  0.500000      1.000000
  0.100000  0.400000  0.500000      1.000000
  0.200000  0.400000  0.500000      1.000000
  0.300000  0.400000  0.500000      1.000000
  0.400000  0.400000  0.500000      1.000000
  0.500000  0.400000  0.500000      1.000000
 -0.400000  0.400000  0.500000      1.000000
 -0.300000  0.400000  0.500000      1.000000
 -0.200000  0.400000  0.500000      1.000000
 -0.100000  0.400000  0.500000      1.000000
  0.000000  0.500000  0.500000      1.000000
  0.100000  0.500000  0.500000      1.000000
  0.200000  0.500000  0.500000      1.000000
  0.300000  0.500000  0.500000      1.000000
  0.400000  0.500000  0.500000      1.000000
  0.500000  0.500000  0.500000      1.000000
 -0.400000  0.500000  0.500000      1.000000
 -0.300000  0.500000  0.500000      1.000000
 -0.200000  0.500000  0.500000      1.000000
 -0.100000  0.500000  0.500000      1.000000
  0.000000 -0.400000  0.500000      1.000000
  0.100000 -0.400000  0.500000      1.000000
  0.200000 -0.400000  0.500000      1.000000
  0.300000 -0.400000  0.500000      1.000000
  0.400000 -0.400000  0.500000      1.000000
  0.500000 -0.400000  0.500000      1.000000
 -0.400000 -0.400000  0.500000      1.000000
 -0.300000 -0.400000  0.500000      1.000000
 -0.200000 -0.400000  0.500000      1.000000
 -0.100000 -0.400000  0.500000      1.000000
  0.000000 -0.300000  0.500000      1.000000
  0.100000 -0.300000  0.500000      1.000000
  0.200000 -0.300000  0.500000      1.000000
  0.300000 -0.300000  0.500000      1.000000
  0.400000 -0.300000  0.500000      1.000000
  0.500000 -0.300000  0.500000      1.000000
 -0.400000 -0.300000  0.500000      1.000000
 -0.300000 -0.300000  0.500000      1.000000
 -0.200000 -0.300000  0.500000      1.000000
 -0.100000 -0.300000  0.500000      1.000000
  0.000000 -0.200000  0.500000      1.000000
  0.100000 -0.200000  0.500000      1.000000
  0.200000 -0.200000  0.500000      1.000000
  0.300000 -0.200000  0.500000      1.000000
  0.400000 -0.200000  0.500000      1.000000
  0.500000 -0.200000  0.500000      1.000000
 -0.400000 -0.200000  0.500000      1.000000
 -0.300000 -0.200000  0.500000      1.000000
 -0.200000 -0.200000  0.500000      1.000000
 -0.100000 -0.200000  0.500000      1.000000
  0.000000 -0.100000  0.500000      1.000000
  0.100000 -0.100000  0.500000      1.000000
  0.200000 -0.100000  0.500000      1.000000
  0.300000 -0.100000  0.500000      1.000000
  0.400000 -0.100000  0.500000      1.000000
  0.500000 -0.100000  0.500000      1.000000
 -0.400000 -0.100000  0.500000      1.000000
 -0.300000 -0.100000  0.500000      1.000000
 -0.200000 -0.100000  0.500000      1.000000
 -0.100000 -0.100000  0.500000      1.000000
  0.000000  0.000000 -0.333333      1.000000
  0.100000  0.000000 -0.333333      1.000000
  0.200000  0.000000 -0.333333      1.000000
  0.300000  0.000000 -0.333333      1.000000
  0.400000  0.000000 -0.333333      1.000000
  0.500000  0.000000 -0.333333      1.000000
 -0.400000  0.000000 -0.333333      1.000000
 -0.300000  0.000000 -0.333333      1.000000
 -0.200000  0.000000 -0.333333      1.000000
 -0.100000  0.000000 -0.333333      1.000000
[...]
     13      -3.6041      -4.0538     -21.2427     -20.6550     -26.6935       0.7651       2.0000
     14      -3.6041      -4.0538     -21.2427     -20.6550     -26.6935       0.7651       2.0000
     15      -1.9759      -2.2610     -20.8053     -20.4369     -25.4658       0.7740       2.0000
     16      -1.9759      -2.2610     -20.8053     -20.4369     -25.4658       0.7740       2.0000
     17      -1.5275      -1.7525     -21.1304     -20.8404     -25.7236       0.7759       2.0000
     18      -1.5275      -1.7525     -21.1304     -20.8404     -25.7236       0.7759       2.0000
     19       7.3384       8.0642     -11.2921     -12.1805      -7.6800       0.8170       0.0000
     20       7.3384       8.0642     -11.2921     -12.1805      -7.6800       0.8170       0.0000
     21      10.9655      11.7289     -10.4516     -11.3897      -6.2709       0.8138       0.0000
     22      10.9655      11.7289     -10.4516     -11.3897      -6.2709       0.8138       0.0000
     23      12.5797      13.2463     -10.0568     -10.8824      -5.6504       0.8075       0.0000
     24      12.5797      13.2463     -10.0568     -10.8824      -5.6504       0.8075       0.0000
     25      15.5730      16.0839      -9.1837      -9.8120      -4.4806       0.8132       0.0000
     26      15.5730      16.0839      -9.1837      -9.8120      -4.4806       0.8132       0.0000
     27      19.1255      19.5682      -9.0238      -9.5722      -3.9924       0.8072       0.0000
     28      19.1255      19.5682      -9.0238      -9.5722      -3.9924       0.8072       0.0000
     29      21.7065      22.0912      -9.0429      -9.5116      -3.8796       0.8209       0.0000
     30      21.7065      22.0912      -9.0429      -9.5116      -3.8796       0.8209       0.0000
     31      25.6108      26.1598      -9.7317     -10.3940      -4.1868       0.8289       0.0000
     32      25.6108      26.1598      -9.7317     -10.3940      -4.1868       0.8289       0.0000
     33      27.4373      28.0089      -9.4360     -10.1104      -3.9625       0.8475       0.0000
     34      27.4373      28.0089      -9.4360     -10.1104      -3.9625       0.8475       0.0000
     35      29.4547      30.1242      -8.7821      -9.5708      -3.4998       0.8488       0.0000
     36      29.4547      30.1242      -8.7821      -9.5708      -3.4998       0.8488       0.0000
     37      31.3280      31.8773      -8.3038      -8.9454      -2.9341       0.8562       0.0000
     38      31.3280      31.8773      -8.3038      -8.9454      -2.9341       0.8562       0.0000
     39      32.9959      33.8565      -9.3823     -10.4049      -3.7649       0.8416       0.0000
     40      32.9959      33.8565      -9.3823     -10.4049      -3.7649       0.8416       0.0000
     41      33.9243      34.6618      -8.8159      -9.6774      -3.3809       0.8560       0.0000
     42      33.9243      34.6618      -8.8159      -9.6774      -3.3809       0.8560       0.0000
     43      37.2526      37.9343      -8.4458      -9.2360      -2.7406       0.8626       0.0000
     44      37.2526      37.9343      -8.4458      -9.2360      -2.7406       0.8626       0.0000
     45      38.4880      39.2175      -8.2702      -9.1215      -2.7339       0.8570       0.0000
     46      38.4880      39.2175      -8.2702      -9.1215      -2.7339       0.8570       0.0000
     47      40.4251      41.1412      -8.1316      -8.9672      -2.6228       0.8570       0.0000
     48      40.4251      41.1412      -8.1316      -8.9672      -2.6228       0.8570       0.0000

 k-point  54 :       0.3000    0.2000    0.5000
  band No. DFT-energies  QP-energies   sigma(DFT)  V_xc(DFT)    V^pw_x(r,r')   Z            occupation

      1     -18.7639     -18.7239     -22.3309     -22.3865     -31.1056       0.7195       2.0000
      2     -18.7639     -18.7239     -22.3309     -22.3865     -31.1056       0.7195       2.0000
      3      -6.7339      -7.3455     -21.6903     -20.8694     -28.4308       0.7449       2.0000
      4      -6.7339      -7.3455     -21.6903     -20.8694     -28.4308       0.7449       2.0000
      5      -6.3739      -7.0370     -23.0973     -22.2103     -30.2947       0.7477       2.0000
      6      -6.3739      -7.0370     -23.0973     -22.2103     -30.2947       0.7477       2.0000
      7      -6.2015      -6.8873     -23.4522     -22.5375     -30.7563       0.7496       2.0000
      8      -6.2015      -6.8873     -23.4522     -22.5375     -30.7563       0.7496       2.0000
      9      -5.6408      -6.4797     -24.7337     -23.6295     -32.4459       0.7597       2.0000
     10      -5.6408      -6.4797     -24.7337     -23.6295     -32.4459       0.7597       2.0000
     11      -5.4213      -6.2496     -24.7911     -23.7017     -32.4722       0.7602       2.0000
     12      -5.4213      -6.2496     -24.7911     -23.7017     -32.4722       0.7602       2.0000
     13      -4.1043      -4.5524     -20.9969     -20.4066     -26.5150       0.7592       2.0000
     14      -4.1043      -4.5524     -20.9969     -20.4066     -26.5150       0.7592       2.0000
     15      -2.4580      -2.7880     -20.3900     -19.9622     -25.0810       0.7714       2.0000
     16      -2.4580      -2.7880     -20.3900     -19.9622     -25.0810       0.7714       2.0000
     17      -1.5047      -1.7102     -21.1839     -20.9188     -25.7666       0.7751       2.0000
     18      -1.5047      -1.7102     -21.1839     -20.9188     -25.7666       0.7751       2.0000
     19       8.0594       8.7008     -10.5123     -11.2946      -6.7794       0.8200       0.0000
     20       8.0594       8.7008     -10.5123     -11.2946      -6.7794       0.8200       0.0000
     21      10.6431      11.4856     -11.4112     -12.4575      -7.2451       0.8052       0.0000
     22      10.6431      11.4856     -11.4112     -12.4575      -7.2451       0.8052       0.0000
     23      11.8713      12.5630     -10.2682     -11.1262      -5.9477       0.8061       0.0000
     24      11.8713      12.5630     -10.2682     -11.1262      -5.9477       0.8061       0.0000
     25      16.1603      16.6379      -8.9807      -9.5682      -4.2825       0.8129       0.0000
     26      16.1603      16.6379      -8.9807      -9.5682      -4.2825       0.8129       0.0000
     27      18.6553      19.1254      -9.3515      -9.9378      -4.2434       0.8018       0.0000
     28      18.6553      19.1254      -9.3515      -9.9378      -4.2434       0.8018       0.0000
     29      22.2497      22.6783      -9.3559      -9.8801      -4.0379       0.8177       0.0000
     30      22.2497      22.6783      -9.3559      -9.8801      -4.0379       0.8177       0.0000
     31      25.2378      25.8105      -9.6732     -10.3602      -4.2183       0.8336       0.0000
     32      25.2378      25.8105      -9.6732     -10.3602      -4.2183       0.8336       0.0000
     33      27.7249      28.3312      -9.3927     -10.1127      -3.9162       0.8420       0.0000
     34      27.7249      28.3312      -9.3927     -10.1127      -3.9162       0.8420       0.0000
     35      29.7531      30.4883      -9.0172      -9.8846      -3.7688       0.8474       0.0000
     36      29.7531      30.4883      -9.0172      -9.8846      -3.7688       0.8474       0.0000
     37      32.4742      33.2282      -8.9758      -9.8639      -3.5256       0.8491       0.0000
     38      32.4742      33.2282      -8.9758      -9.8639      -3.5256       0.8491       0.0000
     39      34.0197      34.6884      -8.6575      -9.4370      -3.2718       0.8578       0.0000
     40      34.0197      34.6884      -8.6575      -9.4370      -3.2718       0.8578       0.0000
     41      35.3715      36.0722      -7.9523      -8.7634      -2.5016       0.8638       0.0000
     42      35.3715      36.0722      -7.9523      -8.7634      -2.5016       0.8638       0.0000
     43      36.6821      37.2979      -8.5342      -9.2491      -2.9308       0.8614       0.0000
     44      36.6821      37.2979      -8.5342      -9.2491      -2.9308       0.8614       0.0000
     45      38.8248      39.4986      -8.2319      -9.0187      -2.7152       0.8563       0.0000
     46      38.8248      39.4986      -8.2319      -9.0187      -2.7152       0.8563       0.0000
     47      40.6600      41.4536      -8.4934      -9.4203      -2.7958       0.8561       0.0000
     48      40.6600      41.4536      -8.4934      -9.4203      -2.7958       0.8561       0.0000

 k-point  55 :       0.4000    0.2000    0.5000
  band No. DFT-energies  QP-energies   sigma(DFT)  V_xc(DFT)    V^pw_x(r,r')   Z            occupation

      1     -18.7285     -18.6881     -22.3781     -22.4343     -31.1542       0.7194       2.0000
      2     -18.7285     -18.6881     -22.3781     -22.4343     -31.1542       0.7194       2.0000
      3      -6.7058      -7.3258     -21.8336     -21.0015     -28.6238       0.7451       2.0000
      4      -6.7058      -7.3258     -21.8336     -21.0015     -28.6238       0.7451       2.0000
      5      -6.3730      -7.0416     -23.1822     -22.2879     -30.4167       0.7476       2.0000
      6      -6.3730      -7.0416     -23.1822     -22.2879     -30.4167       0.7476       2.0000
      7      -6.0716      -6.7608     -23.3993     -22.4817     -30.6431       0.7510       2.0000
      8      -6.0716      -6.7608     -23.3993     -22.4817     -30.6431       0.7510       2.0000
      9      -5.6689      -6.5088     -24.6659     -23.5598     -32.3678       0.7594       2.0000
     10      -5.6689      -6.5088     -24.6659     -23.5598     -32.3678       0.7594       2.0000
     11      -5.3298      -6.1604     -24.9181     -23.8260     -32.6344       0.7606       2.0000
     12      -5.3298      -6.1604     -24.9181     -23.8260     -32.6344       0.7606       2.0000
     13      -4.3720      -4.8054     -20.6906     -20.1179     -26.1654       0.7567       2.0000
     14      -4.3720      -4.8054     -20.6906     -20.1179     -26.1654       0.7567       2.0000
     15      -2.6445      -2.9915     -20.2662     -19.8159     -24.9820       0.7705       2.0000
     16      -2.6445      -2.9915     -20.2662     -19.8159     -24.9820       0.7705       2.0000
     17      -1.4853      -1.6827     -21.2125     -20.9579     -25.7894       0.7755       2.0000
     18      -1.4853      -1.6827     -21.2125     -20.9579     -25.7894       0.7755       2.0000
     19       8.4109       8.9782      -9.8405     -10.5289      -6.0594       0.8242       0.0000
     20       8.4109       8.9782      -9.8405     -10.5289      -6.0594       0.8242       0.0000
     21      10.4476      11.3551     -12.2137     -13.3498      -8.0329       0.7988       0.0000
     22      10.4476      11.3551     -12.2137     -13.3498      -8.0329       0.7988       0.0000
     23      11.5817      12.2829     -10.2372     -11.1047      -5.9777       0.8083       0.0000
     24      11.5817      12.2829     -10.2372     -11.1047      -5.9777       0.8083       0.0000
     25      16.5394      16.9993      -8.8748      -9.4399      -4.1862       0.8138       0.0000
     26      16.5394      16.9993      -8.8748      -9.4399      -4.1862       0.8138       0.0000
     27      18.4195      18.9084      -9.6180     -10.2312      -4.4144       0.7975       0.0000
     28      18.4195      18.9084      -9.6180     -10.2312      -4.4144       0.7975       0.0000
     29      22.3671      22.8353      -9.3725      -9.9425      -4.1028       0.8215       0.0000
     30      22.3671      22.8353      -9.3725      -9.9425      -4.1028       0.8215       0.0000
     31      25.0085      25.5543      -9.6193     -10.2768      -4.1400       0.8300       0.0000
     32      25.0085      25.5543      -9.6193     -10.2768      -4.1400       0.8300       0.0000
     33      28.1305      28.7788      -9.3248     -10.0974      -3.8998       0.8391       0.0000
     34      28.1305      28.7788      -9.3248     -10.0974      -3.8998       0.8391       0.0000
     35      29.8006      30.5156      -9.1839     -10.0245      -3.8400       0.8507       0.0000
     36      29.8006      30.5156      -9.1839     -10.0245      -3.8400       0.8507       0.0000
     37      32.0443      32.7765      -8.9681      -9.8321      -3.5782       0.8475       0.0000
     38      32.0443      32.7765      -8.9681      -9.8321      -3.5782       0.8475       0.0000
     39      34.9986      35.7669      -8.3770      -9.2675      -2.9898       0.8627       0.0000
     40      34.9986      35.7669      -8.3770      -9.2675      -2.9898       0.8627       0.0000
     41      35.9130      36.5935      -8.5390      -9.3279      -3.1306       0.8626       0.0000
     42      35.9130      36.5935      -8.5390      -9.3279      -3.1306       0.8626       0.0000
     43      38.0787      38.7083      -8.0448      -8.7799      -2.5049       0.8564       0.0000
     44      38.0787      38.7083      -8.0448      -8.7799      -2.5049       0.8564       0.0000
     45      38.7120      39.3838      -8.2706      -9.0517      -2.7060       0.8602       0.0000
     46      38.7120      39.3838      -8.2706      -9.0517      -2.7060       0.8602       0.0000
     47      39.6020      40.2388      -8.0482      -8.7878      -2.4793       0.8609       0.0000
     48      39.6020      40.2388      -8.0482      -8.7878      -2.4793       0.8609       0.0000

 k-point  56 :       0.3000    0.3000    0.5000
  band No. DFT-energies  QP-energies   sigma(DFT)  V_xc(DFT)    V^pw_x(r,r')   Z            occupation

      1     -18.7152     -18.6736     -22.3921     -22.4499     -31.1686       0.7195       2.0000
      2     -18.7152     -18.6736     -22.3921     -22.4499     -31.1686       0.7195       2.0000
      3      -6.6178      -7.2510     -22.1445     -21.2956     -29.0368       0.7460       2.0000
      4      -6.6178      -7.2510     -22.1445     -21.2956     -29.0368       0.7460       2.0000
      5      -6.4330      -7.0937     -22.9333     -22.0490     -30.0832       0.7472       2.0000
      6      -6.4330      -7.0937     -22.9333     -22.0490     -30.0832       0.7472       2.0000
      7      -6.0190      -6.7189     -23.5523     -22.6213     -30.8402       0.7518       2.0000
      8      -6.0190      -6.7189     -23.5523     -22.6213     -30.8402       0.7518       2.0000
      9      -5.7142      -6.5512     -24.5691     -23.4657     -32.2493       0.7586       2.0000
     10      -5.7142      -6.5512     -24.5691     -23.4657     -32.2493       0.7586       2.0000
     11      -5.2799      -6.1067     -24.9896     -23.9028     -32.7142       0.7609       2.0000
     12      -5.2799      -6.1067     -24.9896     -23.9028     -32.7142       0.7609       2.0000
     13      -4.2855      -4.6882     -20.5454     -20.0129     -25.9060       0.7563       2.0000
     14      -4.2855      -4.6882     -20.5454     -20.0129     -25.9060       0.7563       2.0000
     15      -2.9803      -3.3697     -20.0229     -19.5165     -24.7980       0.7689       2.0000
     16      -2.9803      -3.3697     -20.0229     -19.5165     -24.7980       0.7689       2.0000
     17      -1.4664      -1.6586     -21.2247     -20.9768     -25.7956       0.7754       2.0000
     18      -1.4664      -1.6586     -21.2247     -20.9768     -25.7956       0.7754       2.0000
     19       9.0585       9.6582     -10.2211     -10.9543      -6.3746       0.8178       0.0000
     20       9.0585       9.6582     -10.2211     -10.9543      -6.3746       0.8178       0.0000
     21      10.2905      10.9292     -10.2763     -11.0610      -6.2282       0.8140       0.0000
     22      10.2905      10.9292     -10.2763     -11.0610      -6.2282       0.8140       0.0000
     23      10.9956      11.9612     -12.0832     -13.2944      -7.7689       0.7972       0.0000
     24      10.9956      11.9612     -12.0832     -13.2944      -7.7689       0.7972       0.0000
     25      17.0566      17.4572      -8.6528      -9.1445      -3.9741       0.8148       0.0000
     26      17.0566      17.4572      -8.6528      -9.1445      -3.9741       0.8148       0.0000
     27      18.3311      18.8915      -9.6845     -10.3872      -4.4816       0.7976       0.0000
     28      18.3311      18.8915      -9.6845     -10.3872      -4.4816       0.7976       0.0000
     29      21.6402      22.0987      -9.3967      -9.9549      -4.1772       0.8215       0.0000
     30      21.6402      22.0987      -9.3967      -9.9549      -4.1772       0.8215       0.0000
     31      25.6858      26.2477      -9.5332     -10.2066      -4.0406       0.8345       0.0000
     32      25.6858      26.2477      -9.5332     -10.2066      -4.0406       0.8345       0.0000
     33      27.9528      28.5763      -9.4912     -10.2305      -3.9359       0.8433       0.0000
     34      27.9528      28.5763      -9.4912     -10.2305      -3.9359       0.8433       0.0000
     35      29.5284      30.2258      -9.1642      -9.9810      -3.9182       0.8538       0.0000
     36      29.5284      30.2258      -9.1642      -9.9810      -3.9182       0.8538       0.0000
     37      33.1039      33.9107      -8.8060      -9.7570      -3.4652       0.8483       0.0000
     38      33.1039      33.9107      -8.8060      -9.7570      -3.4652       0.8483       0.0000
     39      34.2312      34.9627      -8.3353      -9.1820      -2.8563       0.8639       0.0000
     40      34.2312      34.9627      -8.3353      -9.1820      -2.8563       0.8639       0.0000
     41      36.5266      37.2922      -8.7316      -9.6183      -3.3137       0.8634       0.0000
     42      36.5266      37.2922      -8.7316      -9.6183      -3.3137       0.8634       0.0000
     43      37.4730      38.0552      -8.1066      -8.7808      -2.6075       0.8634       0.0000
     44      37.4730      38.0552      -8.1066      -8.7808      -2.6075       0.8634       0.0000
     45      38.6418      39.4366      -8.6548      -9.5785      -3.1596       0.8605       0.0000
     46      38.6418      39.4366      -8.6548      -9.5785      -3.1596       0.8605       0.0000
     47      39.7692      40.3924      -7.8333      -8.5598      -2.2494       0.8579       0.0000
     48      39.7692      40.3924      -7.8333      -8.5598      -2.2494       0.8579       0.0000


--------------------------------------------------------------------------------------------------------


  QP_SHIFT:  cpu time    1.92: real time    1.93
 writing wavefunctions
    4ORBIT:  cpu time    0.00: real time    0.00



 total charge     

# of ion     s       p       d       tot
----------------------------------------
  1        0.416   0.468   9.931  10.816
  2        0.418   0.468   9.931  10.817
  3        1.573   3.505   0.000   5.078
  4        1.573   3.504   0.000   5.078
------------------------------------------------
tot        3.981   7.946  19.862  31.789


 total amount of memory used by VASP on root node  75633. kBytes
========================================================================

   base      :    30000. kBytes
   nonl-proj :    14637. kBytes
   fftplans  :     3148. kBytes
   grid      :     4345. kBytes
   one-center:       62. kBytes
   HF        :      259. kBytes
   nonlr-proj:     1678. kBytes
   wavefun   :    21504. kBytes
   2eintegral:        0. kBytes
   response  :        0. kBytes

  
  
 General timing and accounting informations for this job:
 ========================================================
  
                  Total CPU time used (sec):    16968.168
                            User time (sec):    16764.828
                          System time (sec):      203.341
                         Elapsed time (sec):    16975.885
  
                   Maximum memory used (kb):           0.
                   Average memory used (kb):           0.
  
                          Minor page faults:     55897783
                          Major page faults:            0
                 Voluntary context switches:          790
