 vasp.5.2.2 15Apr09 complex 
 executed on             LinuxPgi date 2009.12.29  07:52:18
 running on    8 nodes
 distr:  one band on    4 nodes,    2 groups


--------------------------------------------------------------------------------------------------------


 INCAR:
 POTCAR:   PAW_PBE Zn 06Sep2000                   
 POTCAR:   PAW_PBE O 08Apr2002                    
 POTCAR:   PAW_PBE Zn 06Sep2000                   
   VRHFIN =Zn: d10 p2                                                           
   LEXCH  = PE                                                                  
   EATOM  =  1749.0928 eV,  128.5547 Ry                                         
                                                                                
   TITEL  = PAW_PBE Zn 06Sep2000                                                
   LULTRA =        F    use ultrasoft PP ?                                      
   IUNSCR =        1    unscreen: 0-lin 1-nonlin 2-no                           
   RPACOR =    2.000    partial core radius                                     
   POMASS =   65.390; ZVAL   =   12.000    mass and valenz                      
   RCORE  =    2.300    outmost cutoff radius                                   
   RWIGS  =    2.400; RWIGS  =    1.270    wigner-seitz radius (au A)           
   ENMAX  =  276.727; ENMIN  =  207.545 eV                                      
   RCLOC  =    1.828    cutoff for local pot                                    
   LCOR   =        T    correct aug charges                                     
   LPAW   =        T    paw PP                                                  
   EAUG   =  575.892                                                            
   DEXC   =    -.003                                                            
   RMAX   =    2.772    core radius for proj-oper                               
   RAUG   =    1.300    factor for augmentation sphere                          
   RDEP   =    2.324    radius for radial grids                                 
   QCUT   =   -4.510; QGAM   =    9.020    optimization parameters              
                                                                                
   Description                                                                  
     l     E      TYP  RCUT    TYP  RCUT                                        
     2   .000     23  2.300                                                     
     2   .000     23  2.300                                                     
     0   .000     23  2.300                                                     
     0   .000     23  2.300                                                     
     1  -.200     23  2.300                                                     
     1   .000     23  2.300                                                     
     3   .000      7   .000                                                     
  local pseudopotential read in
  partial core-charges read in
  atomic valenz-charges read in
  non local Contribution for L=            2  read in
    real space projection operators read in
  non local Contribution for L=            2  read in
    real space projection operators read in
  non local Contribution for L=            0  read in
    real space projection operators read in
  non local Contribution for L=            0  read in
    real space projection operators read in
  non local Contribution for L=            1  read in
    real space projection operators read in
  non local Contribution for L=            1  read in
    real space projection operators read in
    PAW grid and wavefunctions read in

   number of l-projection  operators is LMAX  =            6
   number of lm-projection operators is LMMAX =           18

 POTCAR:   PAW_PBE O 08Apr2002                    
   VRHFIN =O: s2p4                                                              
   LEXCH  = PE                                                                  
   EATOM  =   432.3788 eV,   31.7789 Ry                                         
                                                                                
   TITEL  = PAW_PBE O 08Apr2002                                                 
   LULTRA =        F    use ultrasoft PP ?                                      
   IUNSCR =        0    unscreen: 0-lin 1-nonlin 2-no                           
   RPACOR =     .000    partial core radius                                     
   POMASS =   16.000; ZVAL   =    6.000    mass and valenz                      
   RCORE  =    1.520    outmost cutoff radius                                   
   RWIGS  =    1.550; RWIGS  =     .820    wigner-seitz radius (au A)           
   ENMAX  =  400.000; ENMIN  =  300.000 eV                                      
   ICORE  =        2    local potential                                         
   LCOR   =        T    correct aug charges                                     
   LPAW   =        T    paw PP                                                  
   EAUG   =  605.392                                                            
   DEXC   =     .000                                                            
   RMAX   =    2.264    core radius for proj-oper                               
   RAUG   =    1.300    factor for augmentation sphere                          
   RDEP   =    1.550    radius for radial grids                                 
   QCUT   =   -5.520; QGAM   =   11.041    optimization parameters              
                                                                                
   Description                                                                  
     l     E      TYP  RCUT    TYP  RCUT                                        
     0   .000     23  1.200                                                     
     0  -.700     23  1.200                                                     
     1   .000     23  1.520                                                     
     1   .600     23  1.520                                                     
     2   .000      7  1.500                                                     
  local pseudopotential read in
  atomic valenz-charges read in
  non local Contribution for L=            0  read in
    real space projection operators read in
  non local Contribution for L=            0  read in
    real space projection operators read in
  non local Contribution for L=            1  read in
    real space projection operators read in
  non local Contribution for L=            1  read in
    real space projection operators read in
    PAW grid and wavefunctions read in

   number of l-projection  operators is LMAX  =            4
   number of lm-projection operators is LMMAX =            8

 PAW_PBE Zn 06Sep2000                   :
 energy of atom  1       EATOM=-1749.0928
 kinetic energy error for atom=    0.0107 (will be added to EATOM!!)
 PAW_PBE O 08Apr2002                    :
 energy of atom  2       EATOM= -432.3788
 kinetic energy error for atom=    0.1156 (will be added to EATOM!!)


 POSCAR: POSCAR created by SUPERPOSCAR           
  positions in direct lattice
  No initial velocities read in
 exchange correlation table for  LEXCH =        8
   RHO(1)=    0.500       N(1)  =     2000
   RHO(2)=  100.500       N(2)  =     4000



--------------------------------------------------------------------------------------------------------


 ion  position               nearest neighbor table
   1  0.000  0.000  1.000 -   3 1.985   3 1.985   3 1.985   4 1.995
   2  0.333  0.667  0.500 -   4 1.985   4 1.985   4 1.985   3 1.995
   3  0.333  0.667  0.880 -   1 1.985   1 1.985   1 1.985   2 1.995
   4  0.000  0.000  0.380 -   2 1.985   2 1.985   2 1.985   1 1.995

  LATTYP: Found a hexagonal cell.
 ALAT       =     3.2605400000
 C/A-ratio  =     1.6100972000
  
  Lattice vectors:
  
 A1 = (   1.6302700000,  -2.8237104577,   0.0000000000)
 A2 = (   1.6302700000,   2.8237104577,   0.0000000000)
 A3 = (   0.0000000000,   0.0000000000,   5.2497863245)
 Subroutine PRICEL returns:
 Original cell was already a primitive cell.
 

Analysis of symmetry for initial positions (statically):

 Routine SETGRP: Setting up the symmetry group for a 
 hexagonal supercell.


 Subroutine GETGRP returns: Found 12 space group operations
 (whereof  6 operations were pure point group operations)
 out of a pool of 24 trial point group operations.


The static configuration has the point symmetry C_3v.
 The point group associated with its full space group is C_6v.

Analysis of symmetry for dynamics (positions and initial velocities):

 Subroutine DYNSYM returns: Found 12 space group operations
 (whereof  6 operations were pure point group operations)
 out of a pool of 12 trial space group operations
 (whereof  6 operations were pure point group operations)
 and found also     1 'primitive' translations


The dynamic configuration has the point symmetry C_3v.
 The point group associated with its full space group is C_6v.


 KPOINTS: Automatic generation                    

Automatic generation of k-mesh.
 
 Subroutine IBZKPT returns following result:
 ===========================================
 
 Found     56 irreducible k-points:
 
 Following reciprocal coordinates:
            Coordinates               Weight
  0.000000  0.000000  0.000000      1.000000
  0.100000  0.000000  0.000000      6.000000
  0.200000  0.000000  0.000000      6.000000
  0.300000  0.000000  0.000000      6.000000
  0.400000  0.000000  0.000000      6.000000
  0.500000  0.000000  0.000000      3.000000
  0.100000  0.100000  0.000000      6.000000
  0.200000  0.100000  0.000000     12.000000
  0.300000  0.100000  0.000000     12.000000
  0.400000  0.100000  0.000000     12.000000
  0.200000  0.200000  0.000000      6.000000
  0.300000  0.200000  0.000000     12.000000
  0.400000  0.200000  0.000000      6.000000
  0.300000  0.300000  0.000000      6.000000
  0.000000  0.000000  0.166667      2.000000
  0.100000  0.000000  0.166667     12.000000
  0.200000  0.000000  0.166667     12.000000
  0.300000  0.000000  0.166667     12.000000
  0.400000  0.000000  0.166667     12.000000
  0.500000  0.000000  0.166667      6.000000
  0.100000  0.100000  0.166667     12.000000
  0.200000  0.100000  0.166667     24.000000
  0.300000  0.100000  0.166667     24.000000
  0.400000  0.100000  0.166667     24.000000
  0.200000  0.200000  0.166667     12.000000
  0.300000  0.200000  0.166667     24.000000
  0.400000  0.200000  0.166667     12.000000
  0.300000  0.300000  0.166667     12.000000
  0.000000  0.000000  0.333333      2.000000
  0.100000  0.000000  0.333333     12.000000
  0.200000  0.000000  0.333333     12.000000
  0.300000  0.000000  0.333333     12.000000
  0.400000  0.000000  0.333333     12.000000
  0.500000  0.000000  0.333333      6.000000
  0.100000  0.100000  0.333333     12.000000
  0.200000  0.100000  0.333333     24.000000
  0.300000  0.100000  0.333333     24.000000
  0.400000  0.100000  0.333333     24.000000
  0.200000  0.200000  0.333333     12.000000
  0.300000  0.200000  0.333333     24.000000
  0.400000  0.200000  0.333333     12.000000
  0.300000  0.300000  0.333333     12.000000
  0.000000  0.000000  0.500000      1.000000
  0.100000  0.000000  0.500000      6.000000
  0.200000  0.000000  0.500000      6.000000
  0.300000  0.000000  0.500000      6.000000
  0.400000  0.000000  0.500000      6.000000
  0.500000  0.000000  0.500000      3.000000
  0.100000  0.100000  0.500000      6.000000
  0.200000  0.100000  0.500000     12.000000
  0.300000  0.100000  0.500000     12.000000
  0.400000  0.100000  0.500000     12.000000
  0.200000  0.200000  0.500000      6.000000
  0.300000  0.200000  0.500000     12.000000
  0.400000  0.200000  0.500000      6.000000
  0.300000  0.300000  0.500000      6.000000
 
 Following cartesian coordinates:
            Coordinates               Weight
  0.000000  0.000000  0.000000      1.000000
  0.100000 -0.057735  0.000000      6.000000
  0.200000 -0.115470  0.000000      6.000000
  0.300000 -0.173205  0.000000      6.000000
  0.400000 -0.230940  0.000000      6.000000
  0.500000 -0.288675  0.000000      3.000000
  0.200000  0.000000  0.000000      6.000000
  0.300000 -0.057735  0.000000     12.000000
  0.400000 -0.115470  0.000000     12.000000
  0.500000 -0.173205  0.000000     12.000000
  0.400000  0.000000  0.000000      6.000000
  0.500000 -0.057735  0.000000     12.000000
  0.600000 -0.115470  0.000000      6.000000
  0.600000  0.000000  0.000000      6.000000
  0.000000  0.000000  0.103513      2.000000
  0.100000 -0.057735  0.103513     12.000000
  0.200000 -0.115470  0.103513     12.000000
  0.300000 -0.173205  0.103513     12.000000
  0.400000 -0.230940  0.103513     12.000000
  0.500000 -0.288675  0.103513      6.000000
  0.200000  0.000000  0.103513     12.000000
  0.300000 -0.057735  0.103513     24.000000
  0.400000 -0.115470  0.103513     24.000000
  0.500000 -0.173205  0.103513     24.000000
  0.400000  0.000000  0.103513     12.000000
  0.500000 -0.057735  0.103513     24.000000
  0.600000 -0.115470  0.103513     12.000000
  0.600000  0.000000  0.103513     12.000000
  0.000000  0.000000  0.207027      2.000000
  0.100000 -0.057735  0.207027     12.000000
  0.200000 -0.115470  0.207027     12.000000
  0.300000 -0.173205  0.207027     12.000000
  0.400000 -0.230940  0.207027     12.000000
  0.500000 -0.288675  0.207027      6.000000
  0.200000  0.000000  0.207027     12.000000
  0.300000 -0.057735  0.207027     24.000000
  0.400000 -0.115470  0.207027     24.000000
  0.500000 -0.173205  0.207027     24.000000
  0.400000  0.000000  0.207027     12.000000
  0.500000 -0.057735  0.207027     24.000000
  0.600000 -0.115470  0.207027     12.000000
  0.600000  0.000000  0.207027     12.000000
  0.000000  0.000000  0.310540      1.000000
  0.100000 -0.057735  0.310540      6.000000
  0.200000 -0.115470  0.310540      6.000000
  0.300000 -0.173205  0.310540      6.000000
  0.400000 -0.230940  0.310540      6.000000
  0.500000 -0.288675  0.310540      3.000000
  0.200000  0.000000  0.310540      6.000000
  0.300000 -0.057735  0.310540     12.000000
  0.400000 -0.115470  0.310540     12.000000
  0.500000 -0.173205  0.310540     12.000000
  0.400000  0.000000  0.310540      6.000000
  0.500000 -0.057735  0.310540     12.000000
  0.600000 -0.115470  0.310540      6.000000
  0.600000  0.000000  0.310540      6.000000
 
 TETIRR: Found    630 inequivalent tetrahedra from     3600


--------------------------------------------------------------------------------------------------------




 Dimension of arrays:
   k-points           NKPTS =     56   k-points in BZ     NKDIM =     56   number of bands    NBANDS=    128
   number of dos      NEDOS =    301   number of ions     NIONS =      4
   non local maximal  LDIM  =      6   non local SUM 2l+1 LMDIM =     18
   total plane-waves  NPLWV =  20736
   max r-space proj   IRMAX =      1   max aug-charges    IRDMAX= 102486
   dimension x,y,z NGX =    24 NGY =   24 NGZ =   36
   dimension x,y,z NGXF=    48 NGYF=   48 NGZF=   72
   support grid    NGXF=    96 NGYF=   96 NGZF=  144
   ions per type =               2   2
 NGX,Y,Z   is equivalent  to a cutoff of  12.24, 12.24, 11.40 a.u.
 NGXF,Y,Z  is equivalent  to a cutoff of  24.47, 24.47, 22.80 a.u.


 I would recommend the setting:
   dimension x,y,z NGX =    21 NGY =   21 NGZ =   34
 SYSTEM =  ZnO                                     
 POSCAR =  POSCAR created by SUPERPOSCAR           

 Startparameter for this run:
   NWRITE =      2    write-flag & timer
   PREC   = accura    medium, high low
   ISTART =      0    job   : 0-new  1-cont  2-samecut
   ICHARG =      2    charge: 1-file 2-atom 10-const
   ISPIN  =      1    spin polarized calculation?
   LNONCOLLINEAR =      F non collinear calculations
   LSORBIT =      F    spin-orbit coupling
   INIWAV =      1    electr: 0-lowe 1-rand  2-diag
   LASPH  =      F    aspherical Exc in radial PAW
   METAGGA=      F    non-selfconsistent MetaGGA calc.

 Electronic Relaxation 1
   ENCUT  =  400.0 eV  29.40 Ry    5.42 a.u.   5.32  5.32  8.56*2*pi/ulx,y,z
   ENINI  =  400.0     initial cutoff
   ENAUG  =  605.4 eV  augmentation charge cutoff
   NELM   =     60;   NELMIN=  2; NELMDL= -5     # of ELM steps 
   EDIFF  = 0.1E-04   stopping-criterion for ELM
   LREAL  =      F    real-space projection
   LCOMPAT=      F    compatible to vasp.4.4
   LREAL_COMPAT= F    compatible to vasp.4.5.1-3
   GGA_COMPAT  = T    GGA compatible to vasp.4.4-vasp.4.6
   LMAXPAW     = -100 max onsite density
   LMAXMIX     =    4 max onsite mixed and CHGCAR
   VOSKOWN=      0    Vosko Wilk Nusair interpolation
   ROPT   =    0.00000   0.00000
 Ionic relaxation
   EDIFFG = 0.1E-03   stopping-criterion for IOM
   NSW    =      0    number of steps for IOM
   NBLOCK =      1;   KBLOCK =      1    inner block; outer block 
   IBRION =     -1    ionic relax: 0-MD 1-quasi-New 2-CG
   NFREE  =      0    steps in history (QN), initial steepest desc. (CG)
   ISIF   =      2    stress and relaxation
   IWAVPR =     10    prediction:  0-non 1-charg 2-wave 3-comb
   ISYM   =      2    0-nonsym 1-usesym 2-fastsym
   LCORR  =      T    Harris-Foulkes like correction to forces

   POTIM  = 0.5000    time-step for ionic-motion
   TEIN   =    0.0    initial temperature
   TEBEG  =    0.0;   TEEND  =   0.0 temperature during run
   SMASS  =  -3.00    Nose mass-parameter (am)
   estimated Nose-frequenzy (Omega)   =  0.10E-29 period in steps =****** mass=  -0.243E-27a.u.
   NPACO  =    256;   APACO  = 16.0  distance and # of slots for P.C.
   PSTRESS=    0.0 pullay stress

  Mass of Ions in am
   POMASS =  65.39 16.00
  Ionic Valenz
   ZVAL   =  12.00  6.00
  Atomic Wigner-Seitz radii
   RWIGS  =   1.20  1.20
   NELECT =      36.0000    total number of electrons
   NUPDOWN=      -1.0000    fix difference up-down

 DOS related values:
   EMIN   =  10.00;   EMAX   =-10.00  energy-range for DOS
   EFERMI =   0.00
   ISMEAR =    -5;   SIGMA  =   0.20  broadening in eV -4-tet -1-fermi 0-gaus

 Electronic relaxation 2 (details)
   IALGO  =     68    algorithm
   LDIAG  =      T    sub-space diagonalisation
   IMIX   =      4    mixing-type and parameters
     AMIX     =   0.40;   BMIX     =  1.00
     AMIX_MAG =   1.60;   BMIX_MAG =  1.00
     AMIN     =   0.10
     WC   =   100.;   INIMIX=   1;  MIXPRE=   1

 Intra band minimization:
   WEIMIN = 0.0000     energy-eigenvalue tresh-hold
   EBREAK =  0.20E-07  absolut break condition
   DEPER  =   0.30     relativ break condition  

   TIME   =   0.40     timestep for ELM

  volume/ion in A,a.u.               =      12.08        81.54
  Fermi-wavevector in a.u.,A,eV,Ry     =   1.483970  2.804297 29.962315  2.202168
  Thomas-Fermi vector in A             =   2.597565

 Write flags
   LWAVE  =      T    write WAVECAR
   LCHARG =      T    write CHGCAR
   LVTOT  =      F    write LOCPOT, local potential
   LELF   =      F    write electronic localiz. function (ELF)
   LORBIT =     10    0 simple, 1 ext, 2 COOP (PROOUT)


 Dipole corrections
   LMONO  =      F    monopole corrections only (constant potential shift)
   LDIPOL =      F    correct potential (dipole corrections)
   IDIPOL =      0    1-x, 2-y, 3-z, 4-all directions 
   EPSILON=  1.0000000 bulk dielectric constant

 Exchange correlation treatment:
   GGA     =    --    GGA type
   LEXCH   =     8    internal setting for exchange type
   VOSKOWN=      0    Vosko Wilk Nusair interpolation
   LHFCALC =     F    Hartree Fock is set to
   LHFONE  =     F    Hartree Fock one center treatment
   AEXX    =    0.0000 exact exchange contribution

 Linear response parameters
   LEPSILON=     F    determine dielectric tensor
   LRPA    =     F    only Hartree local field effects (RPA)
   LNABLA  =     F    use nabla operator in PAW spheres
   LVEL    =     F    velocity operator in full k-point grid
   LINTERFAST=   F  fast interpolation
   KINTER  =     0    interpolate to denser k-point grid
   CSHIFT  =0.1000    complex shift for real part using Kramers Kronig
   OMEGAMAX=  -1.0    maximum frequency

 Orbital magnetization related:
   ORBITALMAG=     F  switch on orbital magnetization
   LCHIMAG   =     F  perturbation theory with respect to B field



--------------------------------------------------------------------------------------------------------


 Static calculation
 charge density and potential will be updated during run
 non-spin polarized calculation
 RMM-DIIS sequential band-by-band and
  variant of blocked Davidson during initial phase
 perform sub-space diagonalisation
    before iterative eigenvector-optimisation
 modified Broyden-mixing scheme, WC =      100.0
 initial mixing is a Kerker type mixing with AMIX =  0.4000 and BMIX =      1.0000
 Hartree-type preconditioning will be used
 using additional bands           110
 reciprocal scheme for non local part
 use partial core corrections
 calculate Harris-corrections to forces 
   (improved forces if not selfconsistent)
 use gradient corrections 
 use of overlap-Matrix (Vanderbilt PP)
 Fermi weights with tetrahedron method with Bloechl corrections


--------------------------------------------------------------------------------------------------------


  energy-cutoff  :      400.00
  volume of cell :       48.3338
      direct lattice vectors                 reciprocal lattice vectors
     1.630270000 -2.823710458  0.000000000     0.306697664 -0.177071979  0.000000000
     1.630270000  2.823710458  0.000000000     0.306697664  0.177071979  0.000000000
     0.000000000  0.000000000  5.249786324     0.000000000  0.000000000  0.190483943

  length of vectors
     3.260539989  3.260539989  5.249786324     0.354143958  0.354143958  0.190483943



 k-points in units of 2pi/SCALE and weight: Automatic generation                    
   0.00000000  0.00000000  0.00000000       0.002
   0.10000000 -0.05773503  0.00000000       0.010
   0.20000000 -0.11547005  0.00000000       0.010
   0.30000000 -0.17320508  0.00000000       0.010
   0.40000000 -0.23094011  0.00000000       0.010
   0.50000000 -0.28867514  0.00000000       0.005
   0.20000000  0.00000000  0.00000000       0.010
   0.30000000 -0.05773503  0.00000000       0.020
   0.40000000 -0.11547005  0.00000000       0.020
   0.50000000 -0.17320508  0.00000000       0.020
   0.40000000  0.00000000  0.00000000       0.010
   0.50000000 -0.05773503  0.00000000       0.020
   0.60000000 -0.11547005  0.00000000       0.010
   0.60000000  0.00000000  0.00000000       0.010
   0.00000000  0.00000000  0.10351342       0.003
   0.10000000 -0.05773503  0.10351342       0.020
   0.20000000 -0.11547005  0.10351342       0.020
   0.30000000 -0.17320508  0.10351342       0.020
   0.40000000 -0.23094011  0.10351342       0.020
   0.50000000 -0.28867514  0.10351342       0.010
   0.20000000  0.00000000  0.10351342       0.020
   0.30000000 -0.05773503  0.10351342       0.040
   0.40000000 -0.11547005  0.10351342       0.040
   0.50000000 -0.17320508  0.10351342       0.040
   0.40000000  0.00000000  0.10351342       0.020
   0.50000000 -0.05773503  0.10351342       0.040
   0.60000000 -0.11547005  0.10351342       0.020
   0.60000000  0.00000000  0.10351342       0.020
   0.00000000  0.00000000  0.20702684       0.003
   0.10000000 -0.05773503  0.20702684       0.020
   0.20000000 -0.11547005  0.20702684       0.020
   0.30000000 -0.17320508  0.20702684       0.020
   0.40000000 -0.23094011  0.20702684       0.020
   0.50000000 -0.28867514  0.20702684       0.010
   0.20000000  0.00000000  0.20702684       0.020
   0.30000000 -0.05773503  0.20702684       0.040
   0.40000000 -0.11547005  0.20702684       0.040
   0.50000000 -0.17320508  0.20702684       0.040
   0.40000000  0.00000000  0.20702684       0.020
   0.50000000 -0.05773503  0.20702684       0.040
   0.60000000 -0.11547005  0.20702684       0.020
   0.60000000  0.00000000  0.20702684       0.020
   0.00000000  0.00000000  0.31054026       0.002
   0.10000000 -0.05773503  0.31054026       0.010
   0.20000000 -0.11547005  0.31054026       0.010
   0.30000000 -0.17320508  0.31054026       0.010
   0.40000000 -0.23094011  0.31054026       0.010
   0.50000000 -0.28867514  0.31054026       0.005
   0.20000000  0.00000000  0.31054026       0.010
   0.30000000 -0.05773503  0.31054026       0.020
   0.40000000 -0.11547005  0.31054026       0.020
   0.50000000 -0.17320508  0.31054026       0.020
   0.40000000  0.00000000  0.31054026       0.010
   0.50000000 -0.05773503  0.31054026       0.020
   0.60000000 -0.11547005  0.31054026       0.010
   0.60000000  0.00000000  0.31054026       0.010

 k-points in reciprocal lattice and weights: Automatic generation                    
   0.00000000  0.00000000  0.00000000       0.002
   0.10000000  0.00000000  0.00000000       0.010
   0.20000000  0.00000000  0.00000000       0.010
   0.30000000  0.00000000  0.00000000       0.010
   0.40000000  0.00000000  0.00000000       0.010
   0.50000000  0.00000000  0.00000000       0.005
   0.10000000  0.10000000  0.00000000       0.010
   0.20000000  0.10000000  0.00000000       0.020
   0.30000000  0.10000000  0.00000000       0.020
   0.40000000  0.10000000  0.00000000       0.020
   0.20000000  0.20000000  0.00000000       0.010
   0.30000000  0.20000000  0.00000000       0.020
   0.40000000  0.20000000  0.00000000       0.010
   0.30000000  0.30000000  0.00000000       0.010
   0.00000000  0.00000000  0.16666667       0.003
   0.10000000  0.00000000  0.16666667       0.020
   0.20000000  0.00000000  0.16666667       0.020
   0.30000000  0.00000000  0.16666667       0.020
   0.40000000  0.00000000  0.16666667       0.020
   0.50000000  0.00000000  0.16666667       0.010
   0.10000000  0.10000000  0.16666667       0.020
   0.20000000  0.10000000  0.16666667       0.040
   0.30000000  0.10000000  0.16666667       0.040
   0.40000000  0.10000000  0.16666667       0.040
   0.20000000  0.20000000  0.16666667       0.020
   0.30000000  0.20000000  0.16666667       0.040
   0.40000000  0.20000000  0.16666667       0.020
   0.30000000  0.30000000  0.16666667       0.020
   0.00000000  0.00000000  0.33333333       0.003
   0.10000000  0.00000000  0.33333333       0.020
   0.20000000  0.00000000  0.33333333       0.020
   0.30000000  0.00000000  0.33333333       0.020
   0.40000000  0.00000000  0.33333333       0.020
   0.50000000  0.00000000  0.33333333       0.010
   0.10000000  0.10000000  0.33333333       0.020
   0.20000000  0.10000000  0.33333333       0.040
   0.30000000  0.10000000  0.33333333       0.040
   0.40000000  0.10000000  0.33333333       0.040
   0.20000000  0.20000000  0.33333333       0.020
   0.30000000  0.20000000  0.33333333       0.040
   0.40000000  0.20000000  0.33333333       0.020
   0.30000000  0.30000000  0.33333333       0.020
   0.00000000  0.00000000  0.50000000       0.002
   0.10000000  0.00000000  0.50000000       0.010
   0.20000000  0.00000000  0.50000000       0.010
   0.30000000  0.00000000  0.50000000       0.010
   0.40000000  0.00000000  0.50000000       0.010
   0.50000000  0.00000000  0.50000000       0.005
   0.10000000  0.10000000  0.50000000       0.010
   0.20000000  0.10000000  0.50000000       0.020
   0.30000000  0.10000000  0.50000000       0.020
   0.40000000  0.10000000  0.50000000       0.020
   0.20000000  0.20000000  0.50000000       0.010
   0.30000000  0.20000000  0.50000000       0.020
   0.40000000  0.20000000  0.50000000       0.010
   0.30000000  0.30000000  0.50000000       0.010

 position of ions in fractional coordinates (direct lattice) 
   0.00000000  0.00000000  0.99981500
   0.33333340  0.66666670  0.49981500
   0.33333340  0.66666670  0.87978500
   0.00000000  0.00000000  0.37978500

 position of ions in cartesian coordinates  (Angst):
   0.00000000  0.00000000  5.24881511
   1.63027016  0.94123673  2.62392195
   1.63027016  0.94123673  4.61868326
   0.00000000  0.00000000  1.99379010



--------------------------------------------------------------------------------------------------------


 k-point  1 :  0.00000.00000.0000  plane waves:     881
 k-point  2 :  0.10000.00000.0000  plane waves:     881
 k-point  3 :  0.20000.00000.0000  plane waves:     873
 k-point  4 :  0.30000.00000.0000  plane waves:     871
 k-point  5 :  0.40000.00000.0000  plane waves:     884
 k-point  6 :  0.50000.00000.0000  plane waves:     884
 k-point  7 :  0.10000.10000.0000  plane waves:     885
 k-point  8 :  0.20000.10000.0000  plane waves:     872
 k-point  9 :  0.30000.10000.0000  plane waves:     872
 k-point 10 :  0.40000.10000.0000  plane waves:     882
 k-point 11 :  0.20000.20000.0000  plane waves:     879
 k-point 12 :  0.30000.20000.0000  plane waves:     881
 k-point 13 :  0.40000.20000.0000  plane waves:     880
 k-point 14 :  0.30000.30000.0000  plane waves:     887
 k-point 15 :  0.00000.00000.1667  plane waves:     887
 k-point 16 :  0.10000.00000.1667  plane waves:     882
 k-point 17 :  0.20000.00000.1667  plane waves:     884
 k-point 18 :  0.30000.00000.1667  plane waves:     872
 k-point 19 :  0.40000.00000.1667  plane waves:     879
 k-point 20 :  0.50000.00000.1667  plane waves:     890
 k-point 21 :  0.10000.10000.1667  plane waves:     887
 k-point 22 :  0.20000.10000.1667  plane waves:     875
 k-point 23 :  0.30000.10000.1667  plane waves:     881
 k-point 24 :  0.40000.10000.1667  plane waves:     878
 k-point 25 :  0.20000.20000.1667  plane waves:     880
 k-point 26 :  0.30000.20000.1667  plane waves:     877
 k-point 27 :  0.40000.20000.1667  plane waves:     875
 k-point 28 :  0.30000.30000.1667  plane waves:     875
 k-point 29 :  0.00000.00000.3333  plane waves:     887
 k-point 30 :  0.10000.00000.3333  plane waves:     879
 k-point 31 :  0.20000.00000.3333  plane waves:     880
 k-point 32 :  0.30000.00000.3333  plane waves:     881
 k-point 33 :  0.40000.00000.3333  plane waves:     877
 k-point 34 :  0.50000.00000.3333  plane waves:     878
 k-point 35 :  0.10000.10000.3333  plane waves:     883
 k-point 36 :  0.20000.10000.3333  plane waves:     882
 k-point 37 :  0.30000.10000.3333  plane waves:     876
 k-point 38 :  0.40000.10000.3333  plane waves:     878
 k-point 39 :  0.20000.20000.3333  plane waves:     876
 k-point 40 :  0.30000.20000.3333  plane waves:     873
 k-point 41 :  0.40000.20000.3333  plane waves:     870
 k-point 42 :  0.30000.30000.3333  plane waves:     871
 k-point 43 :  0.00000.00000.5000  plane waves:     882
 k-point 44 :  0.10000.00000.5000  plane waves:     878
 k-point 45 :  0.20000.00000.5000  plane waves:     898
 k-point 46 :  0.30000.00000.5000  plane waves:     886
 k-point 47 :  0.40000.00000.5000  plane waves:     874
 k-point 48 :  0.50000.00000.5000  plane waves:     880
 k-point 49 :  0.10000.10000.5000  plane waves:     880
 k-point 50 :  0.20000.10000.5000  plane waves:     880
 k-point 51 :  0.30000.10000.5000  plane waves:     872
 k-point 52 :  0.40000.10000.5000  plane waves:     874
 k-point 53 :  0.20000.20000.5000  plane waves:     872
 k-point 54 :  0.30000.20000.5000  plane waves:     872
 k-point 55 :  0.40000.20000.5000  plane waves:     872
 k-point 56 :  0.30000.30000.5000  plane waves:     870

 maximum and minimum number of plane-waves per node :     230    210

 maximum number of plane-waves:     898
 maximal index in each direction: 
   IXMAX=  5   IYMAX=  5   IZMAX=  8
   IXMIN= -5   IYMIN= -5   IZMIN= -9

 NGX is ok and might be reduce to  22
 NGY is ok and might be reduce to  22
 NGZ is ok and might be reduce to  36

 parallel 3D FFT for wavefunctions:
    minimum data exchange during FFTs selected (reduces bandwidth)
 parallel 3D FFT for charge:
    minimum data exchange during FFTs selected (reduces bandwidth)


 total amount of memory used by VASP on root node  54889. kBytes
========================================================================

   base      :    30000. kBytes
   nonl-proj :     3724. kBytes
   fftplans  :     3213. kBytes
   grid      :     3716. kBytes
   one-center:       15. kBytes
   wavefun   :    14221. kBytes

 Broyden mixing: mesh for mixing (old mesh)
   NGX = 11   NGY = 11   NGZ = 17
  (NGX  = 48   NGY  = 48   NGZ  = 72)
  gives a total of   2057 points

 initial charge density was supplied:
 charge density of overlapping atoms calculated
 number of electron   36.0000000 magnetization 
 keeping initial charge density in first step


--------------------------------------------------------------------------------------------------------


 Maximum index for augmentation-charges         12283 (set IRDMAX)


--------------------------------------------------------------------------------------------------------


 First call to EWALD:  gamma=   0.487
 Maximum number of real-space cells 3x 3x 2
 Maximum number of reciprocal cells 3x 3x 4

    FEWALD:  cpu time    0.00: real time    0.00
   RESPFUN:  cpu time    0.00: real time    0.00


----------------------------------------- Iteration    1(   1)  ---------------------------------------


    POTLOK:  cpu time    0.04: real time    0.04
    SETDIJ:  cpu time    0.06: real time    0.06
     EDDAV:  cpu time   18.08: real time   18.43
 BZINTS: Fermi energy: 11.982457; 36.000000 electrons
         Band energy:  69.635588;  BLOECHL correction: -0.140741
       DOS:  cpu time    0.26: real time    0.26
    --------------------------------------------
      LOOP:  cpu time   18.45: real time   18.80

 eigenvalue-minimisations  : 18000
 total energy-change (2. order) : 0.2305635E+03  (-0.6283584E+03)
 number of electron   36.0000000 magnetization 
 augmentation part    36.0000000 magnetization 

 Free energy of the ion-electron system (eV)
  ---------------------------------------------------
  alpha Z        PSCENC =       230.92633316
  Ewald energy   TEWEN  =     -2947.65590400
  -1/2 Hartree   DENC   =     -1295.74650133
  -exchange  EXHF       =         0.00000000
  -V(xc)+E(xc)   XCENC  =       169.55643114
  PAW double counting   =      3136.89643137    -3495.73942061
  entropy T*S    EENTRO =         0.00000000
  eigenvalues    EBANDS =        69.63558848
  atomic energy  EATOM  =      4362.69053732
  ---------------------------------------------------
  free energy    TOTEN  =       230.56349552 eV

  energy without entropy =      230.56349552  energy(sigma->0) =      230.56349552


--------------------------------------------------------------------------------------------------------




----------------------------------------- Iteration    1(   2)  ---------------------------------------


     EDDAV:  cpu time   16.11: real time   16.40
 BZINTS: Fermi energy:  0.775563; 36.000000 electrons
         Band energy:-161.043206;  BLOECHL correction:  0.000000
       DOS:  cpu time    0.05: real time    0.05
    --------------------------------------------
      LOOP:  cpu time   16.16: real time   16.45

 eigenvalue-minimisations  : 15600
 total energy-change (2. order) :-0.2306788E+03  (-0.2023752E+03)
 number of electron   36.0000000 magnetization 
 augmentation part    36.0000000 magnetization 

 Free energy of the ion-electron system (eV)
  ---------------------------------------------------
  alpha Z        PSCENC =       230.92633316
  Ewald energy   TEWEN  =     -2947.65590400
  -1/2 Hartree   DENC   =     -1295.74650133
  -exchange  EXHF       =         0.00000000
  -V(xc)+E(xc)   XCENC  =       169.55643114
  PAW double counting   =      3136.89643137    -3495.73942061
  entropy T*S    EENTRO =         0.00000000
  eigenvalues    EBANDS =      -161.04320583
  atomic energy  EATOM  =      4362.69053732
  ---------------------------------------------------
  free energy    TOTEN  =        -0.11529879 eV

  energy without entropy =       -0.11529879  energy(sigma->0) =       -0.11529879


--------------------------------------------------------------------------------------------------------




----------------------------------------- Iteration    1(   3)  ---------------------------------------


     EDDAV:  cpu time   17.16: real time   17.50
 BZINTS: Fermi energy: -0.310173; 36.000000 electrons
         Band energy:-182.146822;  BLOECHL correction:  0.000000
       DOS:  cpu time    0.04: real time    0.04
    --------------------------------------------
      LOOP:  cpu time   17.20: real time   17.55

 eigenvalue-minimisations  : 16904
 total energy-change (2. order) :-0.2110362E+02  (-0.2067244E+02)
 number of electron   36.0000000 magnetization 
 augmentation part    36.0000000 magnetization 

 Free energy of the ion-electron system (eV)
  ---------------------------------------------------
  alpha Z        PSCENC =       230.92633316
  Ewald energy   TEWEN  =     -2947.65590400
  -1/2 Hartree   DENC   =     -1295.74650133
  -exchange  EXHF       =         0.00000000
  -V(xc)+E(xc)   XCENC  =       169.55643114
  PAW double counting   =      3136.89643137    -3495.73942061
  entropy T*S    EENTRO =         0.00000000
  eigenvalues    EBANDS =      -182.14682206
  atomic energy  EATOM  =      4362.69053732
  ---------------------------------------------------
  free energy    TOTEN  =       -21.21891502 eV

  energy without entropy =      -21.21891502  energy(sigma->0) =      -21.21891502


--------------------------------------------------------------------------------------------------------




----------------------------------------- Iteration    1(   4)  ---------------------------------------


     EDDAV:  cpu time   16.79: real time   17.09
 BZINTS: Fermi energy: -0.375732; 36.000000 electrons
         Band energy:-182.325008;  BLOECHL correction:  0.000000
       DOS:  cpu time    0.04: real time    0.04
    --------------------------------------------
      LOOP:  cpu time   16.83: real time   17.13

 eigenvalue-minimisations  : 16416
 total energy-change (2. order) :-0.1781863E+00  (-0.1781025E+00)
 number of electron   36.0000000 magnetization 
 augmentation part    36.0000000 magnetization 

 Free energy of the ion-electron system (eV)
  ---------------------------------------------------
  alpha Z        PSCENC =       230.92633316
  Ewald energy   TEWEN  =     -2947.65590400
  -1/2 Hartree   DENC   =     -1295.74650133
  -exchange  EXHF       =         0.00000000
  -V(xc)+E(xc)   XCENC  =       169.55643114
  PAW double counting   =      3136.89643137    -3495.73942061
  entropy T*S    EENTRO =         0.00000000
  eigenvalues    EBANDS =      -182.32500838
  atomic energy  EATOM  =      4362.69053732
  ---------------------------------------------------
  free energy    TOTEN  =       -21.39710134 eV

  energy without entropy =      -21.39710134  energy(sigma->0) =      -21.39710134


--------------------------------------------------------------------------------------------------------




----------------------------------------- Iteration    1(   5)  ---------------------------------------


     EDDAV:  cpu time   16.73: real time   16.99
 BZINTS: Fermi energy: -0.194801; 36.000000 electrons
         Band energy:-182.325065;  BLOECHL correction:  0.000000
       DOS:  cpu time    0.05: real time    0.05
    CHARGE:  cpu time    0.17: real time    0.18
    MIXING:  cpu time    0.00: real time    0.00
    --------------------------------------------
      LOOP:  cpu time   16.95: real time   17.21

 eigenvalue-minimisations  : 16360
 total energy-change (2. order) :-0.5670836E-04  (-0.5670726E-04)
 number of electron   36.0000002 magnetization 
 augmentation part    17.8139736 magnetization 

 Broyden mixing:
  rms(total) = 0.10223E+01    rms(broyden)= 0.10220E+01
  rms(prec ) = 0.21068E+01
  weight for this iteration     100.00

 Free energy of the ion-electron system (eV)
  ---------------------------------------------------
  alpha Z        PSCENC =       230.92633316
  Ewald energy   TEWEN  =     -2947.65590400
  -1/2 Hartree   DENC   =     -1295.74650133
  -exchange  EXHF       =         0.00000000
  -V(xc)+E(xc)   XCENC  =       169.55643114
  PAW double counting   =      3136.89643137    -3495.73942061
  entropy T*S    EENTRO =         0.00000000
  eigenvalues    EBANDS =      -182.32506509
  atomic energy  EATOM  =      4362.69053732
  ---------------------------------------------------
  free energy    TOTEN  =       -21.39715805 eV

  energy without entropy =      -21.39715805  energy(sigma->0) =      -21.39715805


--------------------------------------------------------------------------------------------------------




----------------------------------------- Iteration    1(   6)  ---------------------------------------


    POTLOK:  cpu time    0.04: real time    0.04
    SETDIJ:  cpu time    0.06: real time    0.06
    EDDIAG:  cpu time    3.34: real time    3.39
  RMM-DIIS:  cpu time    9.05: real time    9.04
    ORTHCH:  cpu time    1.09: real time    1.11
 BZINTS: Fermi energy:  1.229828; 36.000000 electrons
         Band energy:-159.413098;  BLOECHL correction:  0.000000
       DOS:  cpu time    0.05: real time    0.05
    CHARGE:  cpu time    0.18: real time    0.17
    MIXING:  cpu time    0.00: real time    0.00
    --------------------------------------------
      LOOP:  cpu time   13.81: real time   13.88

 eigenvalue-minimisations  : 19890
 total energy-change (2. order) : 0.3019376E+01  (-0.2699107E-01)
 number of electron   36.0000002 magnetization 
 augmentation part    17.4772197 magnetization 

 Broyden mixing:
  rms(total) = 0.39445E+00    rms(broyden)= 0.39371E+00
  rms(prec ) = 0.56899E+00
  weight for this iteration     100.00

 eigenvalues of (default mixing * dielectric matrix)
  average eigenvalue GAMMA=   0.7716
  0.7716

 Free energy of the ion-electron system (eV)
  ---------------------------------------------------
  alpha Z        PSCENC =       230.92633316
  Ewald energy   TEWEN  =     -2947.65590400
  -1/2 Hartree   DENC   =     -1320.34896524
  -exchange  EXHF       =         0.00000000
  -V(xc)+E(xc)   XCENC  =       171.69089699
  PAW double counting   =      3217.05483889    -3573.32242199
  entropy T*S    EENTRO =         0.00000000
  eigenvalues    EBANDS =      -159.41309764
  atomic energy  EATOM  =      4362.69053732
  ---------------------------------------------------
  free energy    TOTEN  =       -18.37778252 eV

  energy without entropy =      -18.37778252  energy(sigma->0) =      -18.37778252


--------------------------------------------------------------------------------------------------------




----------------------------------------- Iteration    1(   7)  ---------------------------------------


    POTLOK:  cpu time    0.04: real time    0.04
    SETDIJ:  cpu time    0.06: real time    0.06
    EDDIAG:  cpu time    3.33: real time    3.38
  RMM-DIIS:  cpu time    9.69: real time    9.70
    ORTHCH:  cpu time    1.07: real time    1.12
 BZINTS: Fermi energy:  1.007268; 36.000000 electrons
         Band energy:-156.628737;  BLOECHL correction:  0.000000
       DOS:  cpu time    0.05: real time    0.05
    CHARGE:  cpu time    0.18: real time    0.18
    MIXING:  cpu time    0.00: real time    0.00
    --------------------------------------------
      LOOP:  cpu time   14.42: real time   14.52

 eigenvalue-minimisations  : 21382
 total energy-change (2. order) : 0.1306725E+00  (-0.3020520E-02)
 number of electron   36.0000002 magnetization 
 augmentation part    17.4862717 magnetization 

 Broyden mixing:
  rms(total) = 0.17683E+00    rms(broyden)= 0.17682E+00
  rms(prec ) = 0.27588E+00
  weight for this iteration     100.00

 eigenvalues of (default mixing * dielectric matrix)
  average eigenvalue GAMMA=   1.5541
  0.8639  2.2444

 Free energy of the ion-electron system (eV)
  ---------------------------------------------------
  alpha Z        PSCENC =       230.92633316
  Ewald energy   TEWEN  =     -2947.65590400
  -1/2 Hartree   DENC   =     -1319.30316782
  -exchange  EXHF       =         0.00000000
  -V(xc)+E(xc)   XCENC  =       171.54418380
  PAW double counting   =      3245.96979195    -3605.79014695
  entropy T*S    EENTRO =         0.00000000
  eigenvalues    EBANDS =      -156.62873744
  atomic energy  EATOM  =      4362.69053732
  ---------------------------------------------------
  free energy    TOTEN  =       -18.24710998 eV

  energy without entropy =      -18.24710998  energy(sigma->0) =      -18.24710998


--------------------------------------------------------------------------------------------------------




----------------------------------------- Iteration    1(   8)  ---------------------------------------


    POTLOK:  cpu time    0.04: real time    0.04
    SETDIJ:  cpu time    0.06: real time    0.06
    EDDIAG:  cpu time    3.32: real time    3.37
  RMM-DIIS:  cpu time    9.21: real time    9.21
    ORTHCH:  cpu time    1.08: real time    1.11
 BZINTS: Fermi energy:  1.169941; 36.000000 electrons
         Band energy:-154.349967;  BLOECHL correction:  0.000000
       DOS:  cpu time    0.05: real time    0.05
    CHARGE:  cpu time    0.18: real time    0.18
    MIXING:  cpu time    0.00: real time    0.00
    --------------------------------------------
      LOOP:  cpu time   13.94: real time   14.03

 eigenvalue-minimisations  : 20209
 total energy-change (2. order) : 0.3225117E-01  (-0.2592110E-02)
 number of electron   36.0000002 magnetization 
 augmentation part    17.4701974 magnetization 

 Broyden mixing:
  rms(total) = 0.21406E-01    rms(broyden)= 0.21404E-01
  rms(prec ) = 0.33478E-01
  weight for this iteration     100.00

 eigenvalues of (default mixing * dielectric matrix)
  average eigenvalue GAMMA=   1.4663
  2.4161  1.1451  0.8377

 Free energy of the ion-electron system (eV)
  ---------------------------------------------------
  alpha Z        PSCENC =       230.92633316
  Ewald energy   TEWEN  =     -2947.65590400
  -1/2 Hartree   DENC   =     -1319.56018496
  -exchange  EXHF       =         0.00000000
  -V(xc)+E(xc)   XCENC  =       171.63188245
  PAW double counting   =      3297.69398529    -3659.59154145
  entropy T*S    EENTRO =         0.00000000
  eigenvalues    EBANDS =      -154.34996662
  atomic energy  EATOM  =      4362.69053732
  ---------------------------------------------------
  free energy    TOTEN  =       -18.21485881 eV

  energy without entropy =      -18.21485881  energy(sigma->0) =      -18.21485881


--------------------------------------------------------------------------------------------------------




----------------------------------------- Iteration    1(   9)  ---------------------------------------


    POTLOK:  cpu time    0.04: real time    0.04
    SETDIJ:  cpu time    0.06: real time    0.06
    EDDIAG:  cpu time    3.34: real time    3.37
  RMM-DIIS:  cpu time    9.66: real time    9.66
    ORTHCH:  cpu time    1.06: real time    1.11
 BZINTS: Fermi energy:  1.156109; 36.000000 electrons
         Band energy:-154.702545;  BLOECHL correction:  0.000000
       DOS:  cpu time    0.05: real time    0.05
    CHARGE:  cpu time    0.18: real time    0.18
    MIXING:  cpu time    0.00: real time    0.00
    --------------------------------------------
      LOOP:  cpu time   14.39: real time   14.48

 eigenvalue-minimisations  : 21190
 total energy-change (2. order) :-0.6704117E-03  (-0.5866851E-04)
 number of electron   36.0000002 magnetization 
 augmentation part    17.4752694 magnetization 

 Broyden mixing:
  rms(total) = 0.72328E-02    rms(broyden)= 0.72263E-02
  rms(prec ) = 0.11539E-01
  weight for this iteration     100.00

 eigenvalues of (default mixing * dielectric matrix)
  average eigenvalue GAMMA=   1.7988
  0.8344  1.0909  2.9841  2.2858

 Free energy of the ion-electron system (eV)
  ---------------------------------------------------
  alpha Z        PSCENC =       230.92633316
  Ewald energy   TEWEN  =     -2947.65590400
  -1/2 Hartree   DENC   =     -1319.13550376
  -exchange  EXHF       =         0.00000000
  -V(xc)+E(xc)   XCENC  =       171.60240952
  PAW double counting   =      3300.51834363    -3662.45919984
  entropy T*S    EENTRO =         0.00000000
  eigenvalues    EBANDS =      -154.70254525
  atomic energy  EATOM  =      4362.69053732
  ---------------------------------------------------
  free energy    TOTEN  =       -18.21552923 eV

  energy without entropy =      -18.21552923  energy(sigma->0) =      -18.21552923


--------------------------------------------------------------------------------------------------------




----------------------------------------- Iteration    1(  10)  ---------------------------------------


    POTLOK:  cpu time    0.04: real time    0.04
    SETDIJ:  cpu time    0.06: real time    0.06
    EDDIAG:  cpu time    3.29: real time    3.37
  RMM-DIIS:  cpu time    8.93: real time    8.93
    ORTHCH:  cpu time    1.08: real time    1.11
 BZINTS: Fermi energy:  1.165940; 36.000000 electrons
         Band energy:-154.553917;  BLOECHL correction:  0.000000
       DOS:  cpu time    0.05: real time    0.05
    CHARGE:  cpu time    0.18: real time    0.18
    MIXING:  cpu time    0.00: real time    0.00
    --------------------------------------------
      LOOP:  cpu time   13.63: real time   13.75

 eigenvalue-minimisations  : 19607
 total energy-change (2. order) :-0.4479286E-03  (-0.1266237E-04)
 number of electron   36.0000002 magnetization 
 augmentation part    17.4753147 magnetization 

 Broyden mixing:
  rms(total) = 0.20829E-02    rms(broyden)= 0.20826E-02
  rms(prec ) = 0.44698E-02
  weight for this iteration     100.00

 eigenvalues of (default mixing * dielectric matrix)
  average eigenvalue GAMMA=   1.7498
  2.6403  2.6403  0.8317  1.0718  1.5647

 Free energy of the ion-electron system (eV)
  ---------------------------------------------------
  alpha Z        PSCENC =       230.92633316
  Ewald energy   TEWEN  =     -2947.65590400
  -1/2 Hartree   DENC   =     -1319.27974693
  -exchange  EXHF       =         0.00000000
  -V(xc)+E(xc)   XCENC  =       171.60346378
  PAW double counting   =      3301.89680868    -3663.84355260
  entropy T*S    EENTRO =         0.00000000
  eigenvalues    EBANDS =      -154.55391656
  atomic energy  EATOM  =      4362.69053732
  ---------------------------------------------------
  free energy    TOTEN  =       -18.21597716 eV

  energy without entropy =      -18.21597716  energy(sigma->0) =      -18.21597716


--------------------------------------------------------------------------------------------------------




----------------------------------------- Iteration    1(  11)  ---------------------------------------


    POTLOK:  cpu time    0.04: real time    0.04
    SETDIJ:  cpu time    0.06: real time    0.06
    EDDIAG:  cpu time    3.33: real time    3.37
  RMM-DIIS:  cpu time    9.11: real time    9.11
    ORTHCH:  cpu time    1.06: real time    1.12
 BZINTS: Fermi energy:  1.157112; 36.000000 electrons
         Band energy:-154.471615;  BLOECHL correction:  0.000000
       DOS:  cpu time    0.05: real time    0.05
    CHARGE:  cpu time    0.18: real time    0.18
    MIXING:  cpu time    0.00: real time    0.00
    --------------------------------------------
      LOOP:  cpu time   13.83: real time   13.92

 eigenvalue-minimisations  : 20019
 total energy-change (2. order) : 0.1273846E-04  (-0.1458918E-06)
 number of electron   36.0000002 magnetization 
 augmentation part    17.4750590 magnetization 

 Broyden mixing:
  rms(total) = 0.63915E-03    rms(broyden)= 0.63660E-03
  rms(prec ) = 0.13433E-02
  weight for this iteration     100.00

 eigenvalues of (default mixing * dielectric matrix)
  average eigenvalue GAMMA=   1.8167
  3.1287  2.6157  2.1831  0.8278  0.9856  1.1593

 Free energy of the ion-electron system (eV)
  ---------------------------------------------------
  alpha Z        PSCENC =       230.92633316
  Ewald energy   TEWEN  =     -2947.65590400
  -1/2 Hartree   DENC   =     -1319.33952925
  -exchange  EXHF       =         0.00000000
  -V(xc)+E(xc)   XCENC  =       171.60377743
  PAW double counting   =      3301.30099238    -3663.27055628
  entropy T*S    EENTRO =         0.00000000
  eigenvalues    EBANDS =      -154.47161517
  atomic energy  EATOM  =      4362.69053732
  ---------------------------------------------------
  free energy    TOTEN  =       -18.21596442 eV

  energy without entropy =      -18.21596442  energy(sigma->0) =      -18.21596442


--------------------------------------------------------------------------------------------------------




----------------------------------------- Iteration    1(  12)  ---------------------------------------


    POTLOK:  cpu time    0.04: real time    0.04
    SETDIJ:  cpu time    0.06: real time    0.06
    EDDIAG:  cpu time    3.34: real time    3.38
WARNING in EDDRMM: call to ZHEGV failed, returncode =   8  4 54
WARNING in EDDRMM: call to ZHEGV failed, returncode =   6  3 56
  RMM-DIIS:  cpu time    8.24: real time    8.24
    ORTHCH:  cpu time    1.08: real time    1.12
 BZINTS: Fermi energy:  1.157322; 36.000000 electrons
         Band energy:-154.490774;  BLOECHL correction:  0.000000
       DOS:  cpu time    0.05: real time    0.05
    --------------------------------------------
      LOOP:  cpu time   12.81: real time   12.89

 eigenvalue-minimisations  : 18043
 total energy-change (2. order) : 0.8058189E-06  (-0.9537283E-07)
 number of electron   36.0000002 magnetization 
 augmentation part    17.4750590 magnetization 

 Free energy of the ion-electron system (eV)
  ---------------------------------------------------
  alpha Z        PSCENC =       230.92633316
  Ewald energy   TEWEN  =     -2947.65590400
  -1/2 Hartree   DENC   =     -1319.35044701
  -exchange  EXHF       =         0.00000000
  -V(xc)+E(xc)   XCENC  =       171.60445124
  PAW double counting   =      3301.23203947    -3663.17220023
  entropy T*S    EENTRO =         0.00000000
  eigenvalues    EBANDS =      -154.49077355
  atomic energy  EATOM  =      4362.69053732
  ---------------------------------------------------
  free energy    TOTEN  =       -18.21596361 eV

  energy without entropy =      -18.21596361  energy(sigma->0) =      -18.21596361


--------------------------------------------------------------------------------------------------------




 average (electrostatic) potential at core
  the test charge radii are     0.9521  0.7215
  (the norm of the test charge is              1.0000)
      1  -35.9235      2  -35.9235      3  -73.2927      4  -73.2927



 E-fermi :   1.1573     XC(G=0): -10.8292     alpha+bet : -7.7958
   add alpha+bet to get absolut eigen values

 k-point   1 :       0.0000    0.0000    0.0000
  band No.  band energies     occupation 
      1     -16.9004      2.00000
      2     -16.2026      2.00000
      3      -4.5713      2.00000
      4      -4.5713      2.00000
      5      -4.5166      2.00000
      6      -4.4484      2.00000
      7      -4.3849      2.00000
      8      -4.3849      2.00000
      9      -3.4342      2.00000
     10      -3.4342      2.00000
     11      -3.2305      2.00000
     12      -3.2305      2.00000
     13      -2.9537      2.00000
     14       0.2945      2.00000
     15       0.2945      2.00000
     16       0.9815      2.00000
     17       1.0665      2.00000
     18       1.0665      2.00000
     19       1.8404      0.00000
     20       6.2454      0.00000
     21       9.2372      0.00000
     22      13.8894      0.00000
     23      13.8894      0.00000
     24      14.9912      0.00000
     25      15.1351      0.00000
     26      15.1351      0.00000
     27      17.5742      0.00000
     28      19.2251      0.00000
     29      19.2251      0.00000
     30      20.8922      0.00000
     31      20.9193      0.00000
     32      20.9193      0.00000
     33      22.1191      0.00000
     34      24.0906      0.00000
     35      25.9078      0.00000
     36      25.9078      0.00000
     37      28.3363      0.00000
     38      29.4608      0.00000
     39      29.4608      0.00000
     40      29.7162      0.00000
     41      32.1470      0.00000
     42      32.1470      0.00000
     43      35.4999      0.00000
     44      35.4999      0.00000
     45      36.0705      0.00000
     46      37.8661      0.00000
     47      37.8661      0.00000
     48      40.6195      0.00000
     49      40.6195      0.00000
     50      41.8269      0.00000
     51      43.2217      0.00000
     52      45.6822      0.00000
     53      48.2387      0.00000
     54      49.4895      0.00000
     55      49.4895      0.00000
     56      50.8702      0.00000
     57      51.0424      0.00000
     58      51.5483      0.00000
     59      52.0927      0.00000
     60      52.0927      0.00000
     61      53.9340      0.00000
     62      53.9340      0.00000
     63      55.1974      0.00000
     64      56.2864      0.00000
     65      56.7348      0.00000
     66      57.0056      0.00000
     67      57.0056      0.00000
     68      57.3181      0.00000
     69      57.3181      0.00000
     70      58.3817      0.00000
     71      58.3817      0.00000
     72      60.8858      0.00000
     73      61.1639      0.00000
     74      61.1640      0.00000
     75      62.1917      0.00000
     76      62.1917      0.00000
     77      64.3441      0.00000
     78      64.3441      0.00000
     79      64.3864      0.00000
     80      65.4344      0.00000
     81      65.7135      0.00000
     82      65.7135      0.00000
     83      68.4092      0.00000
     84      68.4092      0.00000
     85      68.7274      0.00000
     86      68.7274      0.00000
     87      68.8631      0.00000
     88      70.0149      0.00000
     89      70.4133      0.00000
     90      70.8422      0.00000
     91      71.1498      0.00000
     92      71.2948      0.00000
     93      71.5076      0.00000
     94      71.5076      0.00000
     95      71.9008      0.00000
     96      71.9008      0.00000
     97      72.2530      0.00000
     98      72.2530      0.00000
     99      73.6813      0.00000
    100      74.4267      0.00000
    101      77.1304      0.00000
    102      77.1304      0.00000
    103      77.9787      0.00000
    104      77.9787      0.00000
    105      78.2522      0.00000
    106      78.2522      0.00000
    107      78.3481      0.00000
    108      79.4914      0.00000
    109      81.4550      0.00000
    110      81.4550      0.00000
    111      81.5919      0.00000
    112      86.3191      0.00000
    113      86.6437      0.00000
    114      86.6437      0.00000
    115      87.3246      0.00000
    116      87.3246      0.00000
    117      88.4690      0.00000
    118      89.0861      0.00000
    119      89.6021      0.00000
    120      91.7873      0.00000
    121      91.7874      0.00000
    122      92.6720      0.00000
    123      93.6922      0.00000
    124      94.5050      0.00000
    125      94.6507      0.00000
    126      95.0817      0.00000
    127      95.6798      0.00000
    128      95.7353      0.00000

 k-point   2 :       0.1000    0.0000    0.0000
  band No.  band energies     occupation 
      1     -16.8463      2.00000
      2     -16.1805      2.00000
      3      -4.6301      2.00000
      4      -4.5396      2.00000
      5      -4.4834      2.00000
      6      -4.4047      2.00000
      7      -4.3554      2.00000
      8      -4.3415      2.00000
      9      -3.4564      2.00000
     10      -3.4372      2.00000
     11      -3.2257      2.00000
     12      -3.1848      2.00000
     13      -2.9660      2.00000
     14      -0.0707      2.00000
     15       0.1584      2.00000
     16       0.4541      2.00000
     17       0.9212      2.00000
     18       0.9975      2.00000
     19       2.5832      0.00000
     20       6.6558      0.00000
     21       9.2368      0.00000
     22      12.8956      0.00000
     23      13.9850      0.00000
     24      14.3993      0.00000
     25      15.1421      0.00000
     26      15.2552      0.00000
     27      17.0753      0.00000
     28      18.6093      0.00000
     29      19.4028      0.00000
     30      21.0133      0.00000
     31      22.1158      0.00000
     32      22.1361      0.00000
     33      22.8356      0.00000
     34      24.7941      0.00000
     35      25.6265      0.00000
     36      25.9899      0.00000
     37      28.8669      0.00000
     38      29.3897      0.00000
     39      29.4918      0.00000
     40      29.6576      0.00000
     41      31.4370      0.00000
     42      31.7035      0.00000
     43      35.0826      0.00000
     44      36.4926      0.00000
     45      36.5779      0.00000
     46      37.6879      0.00000
     47      38.6652      0.00000
     48      40.2691      0.00000
     49      40.6274      0.00000
     50      42.1449      0.00000
     51      43.6981      0.00000
     52      44.8029      0.00000
     53      45.9790      0.00000
     54      48.2814      0.00000
     55      48.8602      0.00000
     56      50.2444      0.00000
     57      50.5878      0.00000
     58      51.1367      0.00000
     59      52.2920      0.00000
     60      52.3739      0.00000
     61      53.8089      0.00000
     62      54.4576      0.00000
     63      54.8338      0.00000
     64      55.2140      0.00000
     65      55.9046      0.00000
     66      56.4275      0.00000
     67      57.8447      0.00000
     68      57.9499      0.00000
     69      58.4061      0.00000
     70      58.8688      0.00000
     71      60.2416      0.00000
     72      61.4501      0.00000
     73      61.4693      0.00000
     74      61.5200      0.00000
     75      61.7187      0.00000
     76      62.6738      0.00000
     77      63.0655      0.00000
     78      63.4490      0.00000
     79      64.3200      0.00000
     80      64.7720      0.00000
     81      65.5657      0.00000
     82      65.6064      0.00000
     83      65.8349      0.00000
     84      66.4476      0.00000
     85      66.8986      0.00000
     86      67.1357      0.00000
     87      68.4006      0.00000
     88      69.8400      0.00000
     89      70.0353      0.00000
     90      70.2805      0.00000
     91      70.8555      0.00000
     92      71.0534      0.00000
     93      71.5434      0.00000
     94      72.0629      0.00000
     95      72.4349      0.00000
     96      73.6229      0.00000
     97      73.7692      0.00000
     98      74.5092      0.00000
     99      75.2205      0.00000
    100      75.9592      0.00000
    101      76.9168      0.00000
    102      77.2961      0.00000
    103      78.1875      0.00000
    104      78.2010      0.00000
    105      79.1438      0.00000
    106      80.4357      0.00000
    107      80.9074      0.00000
    108      81.9919      0.00000
    109      82.6620      0.00000
    110      82.7751      0.00000
    111      83.3727      0.00000
    112      83.9506      0.00000
    113      84.4671      0.00000
    114      85.6049      0.00000
    115      87.1154      0.00000
    116      87.1993      0.00000
    117      88.0496      0.00000
    118      88.6947      0.00000
    119      90.9187      0.00000
    120      91.6424      0.00000
    121      91.7245      0.00000
    122      92.4734      0.00000
    123      92.7436      0.00000
    124      93.1744      0.00000
    125      93.3739      0.00000
    126      94.9980      0.00000
    127      95.3316      0.00000
    128      96.1902      0.00000

 k-point   3 :       0.2000    0.0000    0.0000
  band No.  band energies     occupation 
      1     -16.7018      2.00000
      2     -16.1200      2.00000
      3      -4.7541      2.00000
      4      -4.4637      2.00000
      5      -4.4618      2.00000
      6      -4.3556      2.00000
      7      -4.2167      2.00000
      8      -4.1326      2.00000
      9      -3.5124      2.00000
     10      -3.4299      2.00000
     11      -3.2153      2.00000
     12      -3.0571      2.00000
     13      -2.9877      2.00000
     14      -0.9259      2.00000
     15      -0.2879      2.00000
     16      -0.1837      2.00000
     17       0.7202      2.00000
     18       0.8039      2.00000
     19       3.7050      0.00000
     20       7.5809      0.00000
     21       9.2191      0.00000
     22      11.3503      0.00000
     23      13.1385      0.00000
     24      14.2319      0.00000
     25      14.7494      0.00000
     26      15.2916      0.00000
     27      16.3205      0.00000
     28      18.4880      0.00000
     29      19.3770      0.00000
     30      22.1044      0.00000
     31      23.5855      0.00000
     32      24.2318      0.00000
     33      24.3037      0.00000
     34      24.7684      0.00000
     35      26.3017      0.00000
     36      27.8427      0.00000
     37      28.3375      0.00000
     38      29.1321      0.00000
     39      29.4808      0.00000
     40      30.3461      0.00000
     41      30.8492      0.00000
     42      32.1544      0.00000
     43      33.2487      0.00000
     44      36.8444      0.00000
     45      37.7952      0.00000
     46      38.5850      0.00000
     47      38.7813      0.00000
     48      40.1491      0.00000
     49      41.5921      0.00000
     50      42.0426      0.00000
     51      43.0012      0.00000
     52      45.1969      0.00000
     53      45.6676      0.00000
     54      46.2041      0.00000
     55      46.5532      0.00000
     56      46.7579      0.00000
     57      47.7478      0.00000
     58      50.2990      0.00000
     59      52.3666      0.00000
     60      52.7263      0.00000
     61      53.1135      0.00000
     62      53.8769      0.00000
     63      54.7794      0.00000
     64      56.0818      0.00000
     65      56.1833      0.00000
     66      56.4316      0.00000
     67      57.1882      0.00000
     68      57.9407      0.00000
     69      58.6765      0.00000
     70      58.7484      0.00000
     71      59.3217      0.00000
     72      59.6799      0.00000
     73      60.5483      0.00000
     74      60.7841      0.00000
     75      61.6524      0.00000
     76      62.2945      0.00000
     77      62.4324      0.00000
     78      62.5882      0.00000
     79      63.7031      0.00000
     80      63.9427      0.00000
     81      64.4008      0.00000
     82      65.1514      0.00000
     83      65.2852      0.00000
     84      65.3860      0.00000
     85      67.5308      0.00000
     86      68.7031      0.00000
     87      68.7898      0.00000
     88      69.3315      0.00000
     89      69.7270      0.00000
     90      70.3356      0.00000
     91      71.5327      0.00000
     92      71.5627      0.00000
     93      71.8867      0.00000
     94      72.6367      0.00000
     95      73.3187      0.00000
     96      74.0707      0.00000
     97      74.7428      0.00000
     98      75.7402      0.00000
     99      77.4280      0.00000
    100      77.4669      0.00000
    101      78.4938      0.00000
    102      78.7901      0.00000
    103      80.2042      0.00000
    104      80.9319      0.00000
    105      81.7523      0.00000
    106      82.1595      0.00000
    107      82.2462      0.00000
    108      83.0222      0.00000
    109      83.4083      0.00000
    110      83.6473      0.00000
    111      84.3193      0.00000
    112      85.8213      0.00000
    113      86.1046      0.00000
    114      86.7806      0.00000
    115      87.5758      0.00000
    116      87.8025      0.00000
    117      88.3250      0.00000
    118      88.6721      0.00000
    119      88.9736      0.00000
    120      89.5535      0.00000
    121      91.4731      0.00000
    122      92.1072      0.00000
    123      92.2964      0.00000
    124      92.7459      0.00000
    125      93.6292      0.00000
    126      94.8543      0.00000
    127      95.3431      0.00000
    128      96.1956      0.00000

 k-point   4 :       0.3000    0.0000    0.0000
  band No.  band energies     occupation 
      1     -16.5060      2.00000
      2     -16.0564      2.00000
      3      -4.8440      2.00000
      4      -4.4968      2.00000
      5      -4.3810      2.00000
      6      -4.2144      2.00000
      7      -4.0386      2.00000
      8      -3.8769      2.00000
      9      -3.5448      2.00000
     10      -3.3852      2.00000
     11      -3.2034      2.00000
     12      -3.0439      2.00000
     13      -2.8196      2.00000
     14      -1.8222      2.00000
     15      -0.9811      2.00000
     16      -0.6175      2.00000
     17       0.3907      2.00000
     18       0.5493      2.00000
     19       4.9050      0.00000
     20       8.4019      0.00000
     21       9.1065      0.00000
     22      10.1122      0.00000
     23      12.2022      0.00000
     24      13.6936      0.00000
     25      14.4293      0.00000
     26      15.0924      0.00000
     27      16.6531      0.00000
     28      19.2432      0.00000
     29      19.4377      0.00000
     30      21.1458      0.00000
     31      24.4048      0.00000
     32      25.5999      0.00000
     33      26.2422      0.00000
     34      26.7476      0.00000
     35      26.8727      0.00000
     36      28.4959      0.00000
     37      29.1990      0.00000
     38      29.3855      0.00000
     39      29.6228      0.00000
     40      30.4994      0.00000
     41      31.1400      0.00000
     42      32.2324      0.00000
     43      34.5472      0.00000
     44      35.0643      0.00000
     45      38.3738      0.00000
     46      38.4444      0.00000
     47      38.9077      0.00000
     48      40.7706      0.00000
     49      41.4847      0.00000
     50      42.4721      0.00000
     51      42.5742      0.00000
     52      42.9741      0.00000
     53      44.5014      0.00000
     54      45.1814      0.00000
     55      45.4800      0.00000
     56      47.3787      0.00000
     57      47.8946      0.00000
     58      49.5980      0.00000
     59      50.5539      0.00000
     60      51.3504      0.00000
     61      52.3083      0.00000
     62      52.5072      0.00000
     63      53.3320      0.00000
     64      54.7385      0.00000
     65      55.0229      0.00000
     66      55.5958      0.00000
     67      55.6536      0.00000
     68      56.1627      0.00000
     69      57.2000      0.00000
     70      57.7593      0.00000
     71      58.1582      0.00000
     72      58.2423      0.00000
     73      59.4826      0.00000
     74      59.4863      0.00000
     75      60.5040      0.00000
     76      61.2348      0.00000
     77      61.9819      0.00000
     78      62.9621      0.00000
     79      64.3742      0.00000
     80      64.3916      0.00000
     81      65.3186      0.00000
     82      66.0705      0.00000
     83      66.6033      0.00000
     84      66.7006      0.00000
     85      67.4330      0.00000
     86      67.6263      0.00000
     87      69.0912      0.00000
     88      69.4253      0.00000
     89      71.1974      0.00000
     90      71.8648      0.00000
     91      72.7528      0.00000
     92      73.5904      0.00000
     93      73.6007      0.00000
     94      74.5703      0.00000
     95      74.6624      0.00000
     96      75.3914      0.00000
     97      76.2862      0.00000
     98      76.6544      0.00000
     99      77.2965      0.00000
    100      78.9729      0.00000
    101      79.5525      0.00000
    102      79.8562      0.00000
    103      80.4374      0.00000
    104      81.5305      0.00000
    105      82.5863      0.00000
    106      83.3809      0.00000
    107      83.9456      0.00000
    108      83.9661      0.00000
    109      84.1824      0.00000
    110      84.5541      0.00000
    111      86.1774      0.00000
    112      87.5260      0.00000
    113      87.5305      0.00000
    114      87.8444      0.00000
    115      88.1375      0.00000
    116      88.3983      0.00000
    117      88.9933      0.00000
    118      89.7606      0.00000
    119      90.9759      0.00000
    120      91.3600      0.00000
    121      91.9550      0.00000
    122      92.5054      0.00000
    123      93.2095      0.00000
    124      93.4604      0.00000
    125      93.8738      0.00000
    126      94.7075      0.00000
    127      94.7581      0.00000
    128      96.0489      0.00000

 k-point   5 :       0.4000    0.0000    0.0000
  band No.  band energies     occupation 
      1     -16.3236      2.00000
      2     -16.0252      2.00000
      3      -4.8316      2.00000
      4      -4.5370      2.00000
      5      -4.3329      2.00000
      6      -4.0413      2.00000
      7      -3.8695      2.00000
      8      -3.8603      2.00000
      9      -3.4350      2.00000
     10      -3.3096      2.00000
     11      -3.1905      2.00000
     12      -2.9878      2.00000
     13      -2.7912      2.00000
     14      -2.2949      2.00000
     15      -1.5401      2.00000
     16      -0.9949      2.00000
     17       0.0066      2.00000
     18       0.3282      2.00000
     19       6.0631      0.00000
     20       8.5309      0.00000
     21       8.6638      0.00000
     22       9.5716      0.00000
     23      11.7461      0.00000
     24      13.3522      0.00000
     25      14.3123      0.00000
     26      15.1438      0.00000
     27      16.8147      0.00000
     28      19.3951      0.00000
     29      20.3091      0.00000
     30      20.7946      0.00000
     31      24.1895      0.00000
     32      25.4174      0.00000
     33      26.7321      0.00000
     34      27.2810      0.00000
     35      28.2772      0.00000
     36      28.6924      0.00000
     37      29.6412      0.00000
     38      29.9826      0.00000
     39      30.6463      0.00000
     40      32.0673      0.00000
     41      32.4564      0.00000
     42      33.2462      0.00000
     43      33.9401      0.00000
     44      36.8702      0.00000
     45      37.4748      0.00000
     46      38.0452      0.00000
     47      38.7335      0.00000
     48      39.1944      0.00000
     49      40.1925      0.00000
     50      41.2929      0.00000
     51      41.4933      0.00000
     52      43.5355      0.00000
     53      44.5532      0.00000
     54      45.7765      0.00000
     55      46.2069      0.00000
     56      47.0561      0.00000
     57      47.8872      0.00000
     58      48.9856      0.00000
     59      50.1524      0.00000
     60      50.7838      0.00000
     61      51.1454      0.00000
     62      51.7957      0.00000
     63      51.9123      0.00000
     64      52.2836      0.00000
     65      52.7512      0.00000
     66      53.4196      0.00000
     67      53.9671      0.00000
     68      55.5485      0.00000
     69      56.3247      0.00000
     70      56.9269      0.00000
     71      57.6577      0.00000
     72      57.7486      0.00000
     73      58.6189      0.00000
     74      59.6897      0.00000
     75      60.1625      0.00000
     76      60.5374      0.00000
     77      61.4573      0.00000
     78      62.6129      0.00000
     79      63.4284      0.00000
     80      64.0902      0.00000
     81      65.2262      0.00000
     82      65.9342      0.00000
     83      66.3973      0.00000
     84      67.4304      0.00000
     85      68.2225      0.00000
     86      68.5465      0.00000
     87      70.0269      0.00000
     88      71.0382      0.00000
     89      72.1591      0.00000
     90      72.4711      0.00000
     91      74.5287      0.00000
     92      75.2962      0.00000
     93      76.2264      0.00000
     94      76.3754      0.00000
     95      76.4739      0.00000
     96      77.0696      0.00000
     97      77.5279      0.00000
     98      78.2885      0.00000
     99      79.2507      0.00000
    100      80.0922      0.00000
    101      80.1389      0.00000
    102      80.2796      0.00000
    103      80.9564      0.00000
    104      81.8371      0.00000
    105      82.0115      0.00000
    106      83.4523      0.00000
    107      83.7661      0.00000
    108      83.7788      0.00000
    109      84.8088      0.00000
    110      86.0947      0.00000
    111      86.5329      0.00000
    112      87.5965      0.00000
    113      87.8344      0.00000
    114      88.2188      0.00000
    115      88.6483      0.00000
    116      89.1527      0.00000
    117      90.6763      0.00000
    118      91.4380      0.00000
    119      91.5554      0.00000
    120      92.0120      0.00000
    121      92.4974      0.00000
    122      92.6853      0.00000
    123      93.2742      0.00000
    124      94.5714      0.00000
    125      94.8991      0.00000
    126      96.0190      0.00000
    127      96.1063      0.00000
    128      96.1607      0.00000

 k-point   6 :       0.5000    0.0000    0.0000
  band No.  band energies     occupation 
      1     -16.2386      2.00000
      2     -16.0264      2.00000
      3      -4.7793      2.00000
      4      -4.5709      2.00000
      5      -4.3182      2.00000
      6      -3.9308      2.00000
      7      -3.9188      2.00000
      8      -3.7982      2.00000
      9      -3.3939      2.00000
     10      -3.2669      2.00000
     11      -3.1839      2.00000
     12      -3.1098      2.00000
     13      -2.6374      2.00000
     14      -2.4432      2.00000
     15      -1.7132      2.00000
     16      -1.1512      2.00000
     17      -0.1944      2.00000
     18       0.2411      2.00000
     19       6.7949      0.00000
     20       7.9190      0.00000
     21       8.6475      0.00000
     22       9.4959      0.00000
     23      11.5898      0.00000
     24      13.4377      0.00000
     25      14.2155      0.00000
     26      15.2153      0.00000
     27      16.8001      0.00000
     28      19.4590      0.00000
     29      20.0790      0.00000
     30      21.5309      0.00000
     31      24.0203      0.00000
     32      25.8245      0.00000
     33      25.9264      0.00000
     34      27.0817      0.00000
     35      28.4076      0.00000
     36      28.7109      0.00000
     37      29.3668      0.00000
     38      30.2844      0.00000
     39      32.3347      0.00000
     40      33.8340      0.00000
     41      33.8340      0.00000
     42      34.2953      0.00000
     43      34.3558      0.00000
     44      35.5507      0.00000
     45      36.3298      0.00000
     46      36.3622      0.00000
     47      38.2275      0.00000
     48      39.5660      0.00000
     49      40.1750      0.00000
     50      41.3938      0.00000
     51      42.5506      0.00000
     52      42.7439      0.00000
     53      44.2906      0.00000
     54      44.9111      0.00000
     55      47.0957      0.00000
     56      47.2197      0.00000
     57      48.3752      0.00000
     58      48.4725      0.00000
     59      49.0858      0.00000
     60      49.9365      0.00000
     61      50.0517      0.00000
     62      51.1150      0.00000
     63      51.4643      0.00000
     64      52.3446      0.00000
     65      52.5474      0.00000
     66      53.5325      0.00000
     67      54.3343      0.00000
     68      54.7872      0.00000
     69      56.0642      0.00000
     70      56.8500      0.00000
     71      57.1827      0.00000
     72      57.3616      0.00000
     73      58.0099      0.00000
     74      59.1942      0.00000
     75      60.1283      0.00000
     76      60.6407      0.00000
     77      62.0293      0.00000
     78      62.5268      0.00000
     79      62.8945      0.00000
     80      62.9088      0.00000
     81      64.4745      0.00000
     82      65.8011      0.00000
     83      66.6151      0.00000
     84      67.1552      0.00000
     85      67.6761      0.00000
     86      68.2719      0.00000
     87      72.5719      0.00000
     88      72.6400      0.00000
     89      72.7744      0.00000
     90      74.6810      0.00000
     91      74.9776      0.00000
     92      75.5990      0.00000
     93      75.8031      0.00000
[...]
    109      84.3367      0.00000
    110      84.3367      0.00000
    111      87.2042      0.00000
    112      87.2042      0.00000
    113      87.8210      0.00000
    114      87.8210      0.00000
    115      89.2339      0.00000
    116      89.2339      0.00000
    117      89.8476      0.00000
    118      89.8476      0.00000
    119      90.9023      0.00000
    120      90.9023      0.00000
    121      91.9565      0.00000
    122      91.9565      0.00000
    123      95.0771      0.00000
    124      95.0893      0.00000
    125      96.1106      0.00000
    126      96.1687      0.00000
    127      97.4280      0.00000
    128      98.0062      0.00000

 k-point  55 :       0.4000    0.2000    0.5000
  band No.  band energies     occupation 
      1     -16.0906      2.00000
      2     -16.0906      2.00000
      3      -4.7339      2.00000
      4      -4.7339      2.00000
      5      -4.2392      2.00000
      6      -4.2392      2.00000
      7      -3.9245      2.00000
      8      -3.9245      2.00000
      9      -3.3392      2.00000
     10      -3.3392      2.00000
     11      -3.0072      2.00000
     12      -3.0072      2.00000
     13      -2.6181      2.00000
     14      -2.6181      2.00000
     15      -1.2000      2.00000
     16      -1.2000      2.00000
     17      -0.1680      2.00000
     18      -0.1680      2.00000
     19       7.7974      0.00000
     20       7.7974      0.00000
     21       9.4853      0.00000
     22       9.4853      0.00000
     23      10.7675      0.00000
     24      10.7675      0.00000
     25      15.6732      0.00000
     26      15.6732      0.00000
     27      17.3819      0.00000
     28      17.3819      0.00000
     29      21.3331      0.00000
     30      21.3331      0.00000
     31      23.8748      0.00000
     32      23.8748      0.00000
     33      26.9916      0.00000
     34      26.9916      0.00000
     35      28.6698      0.00000
     36      28.6698      0.00000
     37      30.8908      0.00000
     38      30.8908      0.00000
     39      33.8340      0.00000
     40      33.8340      0.00000
     41      34.7914      0.00000
     42      34.7914      0.00000
     43      36.9148      0.00000
     44      36.9148      0.00000
     45      37.5454      0.00000
     46      37.5454      0.00000
     47      38.4372      0.00000
     48      38.4372      0.00000
     49      39.9427      0.00000
     50      39.9427      0.00000
     51      41.9843      0.00000
     52      41.9843      0.00000
     53      43.7017      0.00000
     54      43.7017      0.00000
     55      44.6170      0.00000
     56      44.6170      0.00000
     57      46.5974      0.00000
     58      46.5974      0.00000
     59      48.1082      0.00000
     60      48.1082      0.00000
     61      49.2927      0.00000
     62      49.2927      0.00000
     63      51.3168      0.00000
     64      51.3168      0.00000
     65      52.0153      0.00000
     66      52.0153      0.00000
     67      55.8519      0.00000
     68      55.8519      0.00000
     69      56.9864      0.00000
     70      56.9864      0.00000
     71      57.7742      0.00000
     72      57.7742      0.00000
     73      59.3445      0.00000
     74      59.3445      0.00000
     75      60.0950      0.00000
     76      60.0950      0.00000
     77      62.7978      0.00000
     78      62.7978      0.00000
     79      66.9306      0.00000
     80      66.9306      0.00000
     81      67.9679      0.00000
     82      67.9679      0.00000
     83      69.1317      0.00000
     84      69.1317      0.00000
     85      69.8614      0.00000
     86      69.8614      0.00000
     87      71.1598      0.00000
     88      71.1598      0.00000
     89      72.0381      0.00000
     90      72.0381      0.00000
     91      74.0994      0.00000
     92      74.0994      0.00000
     93      75.1782      0.00000
     94      75.1782      0.00000
     95      76.6827      0.00000
     96      76.6827      0.00000
     97      77.7177      0.00000
     98      77.7177      0.00000
     99      79.0854      0.00000
    100      79.0854      0.00000
    101      80.4435      0.00000
    102      80.4435      0.00000
    103      81.4748      0.00000
    104      81.4748      0.00000
    105      82.7140      0.00000
    106      82.7140      0.00000
    107      84.0242      0.00000
    108      84.0242      0.00000
    109      84.7320      0.00000
    110      84.7320      0.00000
    111      86.4704      0.00000
    112      86.4704      0.00000
    113      86.8636      0.00000
    114      86.8636      0.00000
    115      88.9960      0.00000
    116      88.9960      0.00000
    117      89.9871      0.00000
    118      89.9871      0.00000
    119      91.3479      0.00000
    120      91.3479      0.00000
    121      92.2624      0.00000
    122      92.2624      0.00000
    123      93.9227      0.00000
    124      93.9231      0.00000
    125      95.6500      0.00000
    126      95.6684      0.00000
    127      97.4403      0.00000
    128      97.6801      0.00000

 k-point  56 :       0.3000    0.3000    0.5000
  band No.  band energies     occupation 
      1     -16.0780      2.00000
      2     -16.0780      2.00000
      3      -4.6173      2.00000
      4      -4.6173      2.00000
      5      -4.3209      2.00000
      6      -4.3209      2.00000
      7      -3.8697      2.00000
      8      -3.8697      2.00000
      9      -3.3891      2.00000
     10      -3.3891      2.00000
     11      -2.9604      2.00000
     12      -2.9604      2.00000
     13      -2.5683      2.00000
     14      -2.5683      2.00000
     15      -1.4912      2.00000
     16      -1.4912      2.00000
     17      -0.1528      2.00000
     18      -0.1528      2.00000
     19       8.3946      0.00000
     20       8.3946      0.00000
     21       9.5172      0.00000
     22       9.5172      0.00000
     23      10.0321      0.00000
     24      10.0321      0.00000
     25      16.2186      0.00000
     26      16.2186      0.00000
     27      17.2606      0.00000
     28      17.2606      0.00000
     29      20.6323      0.00000
     30      20.6323      0.00000
     31      24.5386      0.00000
     32      24.5386      0.00000
     33      26.7825      0.00000
     34      26.7825      0.00000
     35      28.4389      0.00000
     36      28.4389      0.00000
     37      31.9559      0.00000
     38      31.9559      0.00000
     39      33.0439      0.00000
     40      33.0439      0.00000
     41      35.3514      0.00000
     42      35.3514      0.00000
     43      36.3446      0.00000
     44      36.3446      0.00000
     45      37.4458      0.00000
     46      37.4458      0.00000
     47      38.6118      0.00000
     48      38.6118      0.00000
     49      40.7962      0.00000
     50      40.7962      0.00000
     51      42.2339      0.00000
     52      42.2339      0.00000
     53      43.3417      0.00000
     54      43.3417      0.00000
     55      44.7022      0.00000
     56      44.7022      0.00000
     57      46.2397      0.00000
     58      46.2397      0.00000
     59      47.9945      0.00000
     60      47.9945      0.00000
     61      49.5989      0.00000
     62      49.5989      0.00000
     63      51.3353      0.00000
     64      51.3353      0.00000
     65      52.5299      0.00000
     66      52.5299      0.00000
     67      53.5596      0.00000
     68      53.5596      0.00000
     69      55.6810      0.00000
     70      55.6810      0.00000
     71      57.9894      0.00000
     72      57.9894      0.00000
     73      58.3449      0.00000
     74      58.3449      0.00000
     75      60.1183      0.00000
     76      60.1183      0.00000
     77      63.5033      0.00000
     78      63.5033      0.00000
     79      67.8239      0.00000
     80      67.8239      0.00000
     81      68.7900      0.00000
     82      68.7900      0.00000
     83      69.5587      0.00000
     84      69.5587      0.00000
     85      71.3811      0.00000
     86      71.3811      0.00000
     87      71.8153      0.00000
     88      71.8153      0.00000
     89      72.8556      0.00000
     90      72.8556      0.00000
     91      73.8495      0.00000
     92      73.8495      0.00000
     93      74.6634      0.00000
     94      74.6634      0.00000
     95      76.1290      0.00000
     96      76.1290      0.00000
     97      77.7778      0.00000
     98      77.7778      0.00000
     99      79.6744      0.00000
    100      79.6744      0.00000
    101      80.9858      0.00000
    102      80.9858      0.00000
    103      81.4751      0.00000
    104      81.4751      0.00000
    105      82.5653      0.00000
    106      82.5653      0.00000
    107      83.5791      0.00000
    108      83.5791      0.00000
    109      85.2274      0.00000
    110      85.2274      0.00000
    111      85.4399      0.00000
    112      85.4399      0.00000
    113      86.4268      0.00000
    114      86.4268      0.00000
    115      87.2680      0.00000
    116      87.2680      0.00000
    117      89.0926      0.00000
    118      89.0926      0.00000
    119      90.3087      0.00000
    120      90.3087      0.00000
    121      92.0718      0.00000
    122      92.0718      0.00000
    123      92.9227      0.00000
    124      92.9227      0.00000
    125      95.5149      0.00000
    126      95.5158      0.00000
    127      98.6467      0.00000
    128      98.6692      0.00000


--------------------------------------------------------------------------------------------------------


 soft charge-density along one line, spin component            1
         0         1         2         3         4         5         6         7         8         9
 total charge-density along one line

 pseudopotential strength for first ion, spin component:            1
 -9.428   0.000   0.000  -0.003   0.000   1.568   0.000   0.000
  0.000  -9.435   0.000   0.000  -0.003   0.000   1.572   0.000
  0.000   0.000  -9.431   0.000   0.000   0.000   0.000   1.570
 -0.003   0.000   0.000  -9.435   0.000   0.001   0.000   0.000
  0.000  -0.003   0.000   0.000  -9.428   0.000   0.001   0.000
  1.568   0.000   0.000   0.001   0.000   1.480   0.000   0.000
  0.000   1.572   0.000   0.000   0.001   0.000   1.477   0.000
  0.000   0.000   1.570   0.000   0.000   0.000   0.000   1.478
  0.001   0.000   0.000   1.572   0.000  -0.001   0.000   0.000
  0.000   0.001   0.000   0.000   1.568   0.000  -0.001   0.000
  0.000   0.000   0.000   0.000   0.000   0.000   0.000   0.000
  0.000   0.000   0.000   0.000   0.000   0.000   0.000   0.000
  0.000   0.001   0.000   0.000  -0.002   0.000  -0.001   0.000
  0.000   0.000  -0.003   0.000   0.000   0.000   0.000   0.004
 -0.002   0.000   0.000   0.001   0.000   0.003   0.000   0.000
  0.000  -0.002   0.000   0.000   0.003   0.000   0.001   0.000
  0.000   0.000   0.004   0.000   0.000   0.000   0.000  -0.002
  0.003   0.000   0.000  -0.002   0.000  -0.001   0.000   0.000
 total augmentation occupancy for first ion, spin component:            1
  2.015   0.000   0.000  -0.001   0.000   0.045   0.000   0.000  -0.013   0.000   0.000   0.000   0.000   0.000  -0.011   0.000
  0.000   2.015   0.000   0.000  -0.001   0.000   0.034   0.000   0.000  -0.013   0.000   0.000   0.008   0.000   0.000   0.008
  0.000   0.000   2.015   0.000   0.000   0.000   0.000   0.052   0.000   0.000   0.003   0.005   0.000  -0.014   0.000   0.000
 -0.001   0.000   0.000   2.015   0.000  -0.013   0.000   0.000   0.034   0.000   0.000   0.000   0.000   0.000   0.008   0.000
  0.000  -0.001   0.000   0.000   2.015   0.000  -0.013   0.000   0.000   0.045   0.000   0.000  -0.011   0.000   0.000  -0.013
  0.045   0.000   0.000  -0.013   0.000   0.139   0.000   0.000  -0.052   0.000   0.000   0.000   0.000   0.000   0.114   0.000
  0.000   0.034   0.000   0.000  -0.013   0.000   0.092   0.000   0.000  -0.052   0.000   0.000  -0.075   0.000   0.000   0.011
  0.000   0.000   0.052   0.000   0.000   0.000   0.000   0.174   0.000   0.000  -0.011   0.005   0.000   0.134   0.000   0.000
 -0.013   0.000   0.000   0.034   0.000  -0.052   0.000   0.000   0.092   0.000   0.000   0.000   0.000   0.000  -0.075   0.000
  0.000  -0.013   0.000   0.000   0.045   0.000  -0.052   0.000   0.000   0.139   0.000   0.000   0.114   0.000   0.000  -0.017
  0.000   0.000   0.003   0.000   0.000   0.000   0.000  -0.011   0.000   0.000   0.903  -0.408   0.000   0.001   0.000   0.000
  0.000   0.000   0.005   0.000   0.000   0.000   0.000   0.005   0.000   0.000  -0.408   0.299   0.000  -0.001   0.000   0.000
  0.000   0.008   0.000   0.000  -0.011   0.000  -0.075   0.000   0.000   0.114   0.000   0.000   0.214   0.000   0.000  -0.029
  0.000   0.000  -0.014   0.000   0.000   0.000   0.000   0.134   0.000   0.000   0.001  -0.001   0.000   0.206   0.000   0.000
 -0.011   0.000   0.000   0.008   0.000   0.114   0.000   0.000  -0.075   0.000   0.000   0.000   0.000   0.000   0.214   0.000
  0.000   0.008   0.000   0.000  -0.013   0.000   0.011   0.000   0.000  -0.017   0.000   0.000  -0.029   0.000   0.000   0.006
  0.000   0.000  -0.015   0.000   0.000   0.000   0.000  -0.020   0.000   0.000   0.000   0.000   0.000  -0.028   0.000   0.000
 -0.013   0.000   0.000   0.008   0.000  -0.017   0.000   0.000   0.011   0.000   0.000   0.000   0.000   0.000  -0.029   0.000


------------------------ aborting loop because EDIFF is reached ----------------------------------------





 total charge     

# of ion     s       p       d       tot
----------------------------------------
  1        0.451   0.474   9.899  10.824
  2        0.452   0.474   9.898  10.825
  3        1.575   3.465   0.000   5.040
  4        1.575   3.464   0.000   5.039
------------------------------------------------
tot        4.053   7.879  19.797  31.728



--------------------------------------------------------------------------------------------------------



  FREE ENERGIE OF THE ION-ELECTRON SYSTEM (eV)
  ---------------------------------------------------
  free  energy   TOTEN  =       -18.215964 eV

  energy  without entropy=      -18.215964  energy(sigma->0) =      -18.215964

    CHARGE:  cpu time    0.18: real time    0.18
    FORLOC:  cpu time    0.00: real time    0.00
    FORNL :  cpu time    2.72: real time    2.72
    STRESS:  cpu time    1.58: real time    1.58
    FORCOR:  cpu time    0.04: real time    0.04
    FORHAR:  cpu time    0.02: real time    0.01
    MIXING:  cpu time    0.00: real time    0.00

  FORCE on cell =-STRESS in cart. coord.  units (eV):
  Direction    XX          YY          ZZ          XY          YZ          ZX
  --------------------------------------------------------------------------------------
  Alpha Z   230.92633   230.92633   230.92633
  Ewald    -992.16228  -992.16245  -963.33394    -0.00015     0.00000     0.00000
  Hartree   430.81335   430.81332   457.74769    -0.00002     0.00000     0.00000
  E(xc)    -205.36115  -205.36114  -205.36585     0.00000     0.00000     0.00000
  Local     155.00616   155.00693    98.51490     0.00014     0.00000     0.00000
  n-local  -113.35624  -117.80002  -115.77248    -1.95060    -0.10258     0.28042
  augment    91.44324    91.44272    91.53492     0.00000    -0.00001    -0.00001
  Kinetic   398.82678   410.69702   405.60570     6.13568     0.43748    -1.22098
  Fock        0.00000     0.00000     0.00000     0.00000     0.00000     0.00000
  -------------------------------------------------------------------------------------
  Total      -0.15054    -0.15054    -0.14273     0.00000     0.00000     0.00000
  in kB      -4.99010    -4.99010    -4.73117     0.00000     0.00000     0.00000
  external pressure =       -4.90 kB  Pullay stress =        0.00 kB


 VOLUME and BASIS-vectors are now :
 -----------------------------------------------------------------------------
  energy-cutoff  :      400.00
  volume of cell :       48.33
      direct lattice vectors                 reciprocal lattice vectors
     1.630270000 -2.823710458  0.000000000     0.306697664 -0.177071979  0.000000000
     1.630270000  2.823710458  0.000000000     0.306697664  0.177071979  0.000000000
     0.000000000  0.000000000  5.249786324     0.000000000  0.000000000  0.190483943

  length of vectors
     3.260539989  3.260539989  5.249786324     0.354143958  0.354143958  0.190483943


 FORCES acting on ions
    electron-ion (+dipol)            ewald-force                    non-local-force                 convergence-correction
 -----------------------------------------------------------------------------------------------
   -.372E-04 0.220E-04 -.994E+00   0.443E-04 -.235E-04 0.108E+01   0.173E-17 0.139E-16 -.781E-01   0.442E-08 -.355E-07 0.874E-04
   0.376E-04 -.220E-04 -.994E+00   -.443E-04 0.235E-04 0.108E+01   0.000E+00 -.104E-16 -.781E-01   -.443E-08 0.355E-07 0.874E-04
   -.775E-04 0.452E-04 0.103E+01   -.411E-04 0.218E-04 -.108E+01   0.000E+00 0.694E-17 0.424E-01   -.214E-07 0.937E-09 -.110E-03
   0.772E-04 -.452E-04 0.103E+01   0.411E-04 -.218E-04 -.108E+01   -.173E-17 0.000E+00 0.424E-01   0.214E-07 -.937E-09 -.110E-03
 -----------------------------------------------------------------------------------------------
   0.199E-06 0.113E-09 0.706E-01   -.130E-13 0.189E-14 -.142E-13   0.000E+00 0.104E-16 -.714E-01   -.354E-11 0.124E-12 -.456E-04


 POSITION                                       TOTAL-FORCE (eV/Angst)
 -----------------------------------------------------------------------------------
      0.00000      0.00000      5.24882         0.000000      0.000000      0.010476
      1.63027      0.94124      2.62392         0.000000      0.000000      0.010476
      1.63027      0.94124      4.61868         0.000000      0.000000     -0.010476
      0.00000      0.00000      1.99379         0.000000      0.000000     -0.010476
 -----------------------------------------------------------------------------------
    total drift:                                0.000000      0.000000     -0.000877


--------------------------------------------------------------------------------------------------------


    POTLOK:  cpu time    0.10: real time    0.10


--------------------------------------------------------------------------------------------------------


 writing wavefunctions
     LOOP+:  cpu time  188.83: real time  191.08
    4ORBIT:  cpu time    0.00: real time    0.00



 total charge     

# of ion     s       p       d       tot
----------------------------------------
  1        0.451   0.474   9.899  10.824
  2        0.452   0.474   9.898  10.825
  3        1.575   3.465   0.000   5.040
  4        1.575   3.464   0.000   5.039
------------------------------------------------
tot        4.053   7.879  19.797  31.728

 BZINTS: Fermi energy:  1.157322; 36.000000 electrons
         Band energy:-154.490774;  BLOECHL correction:  0.000000

 total amount of memory used by VASP on root node  54889. kBytes
========================================================================

   base      :    30000. kBytes
   nonl-proj :     3724. kBytes
   fftplans  :     3213. kBytes
   grid      :     3716. kBytes
   one-center:       15. kBytes
   wavefun   :    14221. kBytes

  
  
 General timing and accounting informations for this job:
 ========================================================
  
                  Total CPU time used (sec):      192.856
                            User time (sec):      170.331
                          System time (sec):       22.525
                         Elapsed time (sec):      195.275
  
                   Maximum memory used (kb):           0.
                   Average memory used (kb):           0.
  
                          Minor page faults:      2806696
                          Major page faults:            0
                 Voluntary context switches:          690
