 vasp.5.2.2 15Apr09 complex 
 executed on             LinuxPgi date 2009.12.29  07:55:34
 running on    8 nodes
 distr:  one band on    1 nodes,    8 groups


--------------------------------------------------------------------------------------------------------


 INCAR:
 POTCAR:   PAW_PBE Zn 06Sep2000                   
 POTCAR:   PAW_PBE O 08Apr2002                    
 POTCAR:   PAW_PBE Zn 06Sep2000                   
   VRHFIN =Zn: d10 p2                                                           
   LEXCH  = PE                                                                  
   EATOM  =  1749.0928 eV,  128.5547 Ry                                         
                                                                                
   TITEL  = PAW_PBE Zn 06Sep2000                                                
   LULTRA =        F    use ultrasoft PP ?                                      
   IUNSCR =        1    unscreen: 0-lin 1-nonlin 2-no                           
   RPACOR =    2.000    partial core radius                                     
   POMASS =   65.390; ZVAL   =   12.000    mass and valenz                      
   RCORE  =    2.300    outmost cutoff radius                                   
   RWIGS  =    2.400; RWIGS  =    1.270    wigner-seitz radius (au A)           
   ENMAX  =  276.727; ENMIN  =  207.545 eV                                      
   RCLOC  =    1.828    cutoff for local pot                                    
   LCOR   =        T    correct aug charges                                     
   LPAW   =        T    paw PP                                                  
   EAUG   =  575.892                                                            
   DEXC   =    -.003                                                            
   RMAX   =    2.772    core radius for proj-oper                               
   RAUG   =    1.300    factor for augmentation sphere                          
   RDEP   =    2.324    radius for radial grids                                 
   QCUT   =   -4.510; QGAM   =    9.020    optimization parameters              
                                                                                
   Description                                                                  
     l     E      TYP  RCUT    TYP  RCUT                                        
     2   .000     23  2.300                                                     
     2   .000     23  2.300                                                     
     0   .000     23  2.300                                                     
     0   .000     23  2.300                                                     
     1  -.200     23  2.300                                                     
     1   .000     23  2.300                                                     
     3   .000      7   .000                                                     
  local pseudopotential read in
  partial core-charges read in
  atomic valenz-charges read in
  non local Contribution for L=            2  read in
    real space projection operators read in
  non local Contribution for L=            2  read in
    real space projection operators read in
  non local Contribution for L=            0  read in
    real space projection operators read in
  non local Contribution for L=            0  read in
    real space projection operators read in
  non local Contribution for L=            1  read in
    real space projection operators read in
  non local Contribution for L=            1  read in
    real space projection operators read in
    PAW grid and wavefunctions read in

   number of l-projection  operators is LMAX  =            6
   number of lm-projection operators is LMMAX =           18

 POTCAR:   PAW_PBE O 08Apr2002                    
   VRHFIN =O: s2p4                                                              
   LEXCH  = PE                                                                  
   EATOM  =   432.3788 eV,   31.7789 Ry                                         
                                                                                
   TITEL  = PAW_PBE O 08Apr2002                                                 
   LULTRA =        F    use ultrasoft PP ?                                      
   IUNSCR =        0    unscreen: 0-lin 1-nonlin 2-no                           
   RPACOR =     .000    partial core radius                                     
   POMASS =   16.000; ZVAL   =    6.000    mass and valenz                      
   RCORE  =    1.520    outmost cutoff radius                                   
   RWIGS  =    1.550; RWIGS  =     .820    wigner-seitz radius (au A)           
   ENMAX  =  400.000; ENMIN  =  300.000 eV                                      
   ICORE  =        2    local potential                                         
   LCOR   =        T    correct aug charges                                     
   LPAW   =        T    paw PP                                                  
   EAUG   =  605.392                                                            
   DEXC   =     .000                                                            
   RMAX   =    2.264    core radius for proj-oper                               
   RAUG   =    1.300    factor for augmentation sphere                          
   RDEP   =    1.550    radius for radial grids                                 
   QCUT   =   -5.520; QGAM   =   11.041    optimization parameters              
                                                                                
   Description                                                                  
     l     E      TYP  RCUT    TYP  RCUT                                        
     0   .000     23  1.200                                                     
     0  -.700     23  1.200                                                     
     1   .000     23  1.520                                                     
     1   .600     23  1.520                                                     
     2   .000      7  1.500                                                     
  local pseudopotential read in
  atomic valenz-charges read in
  non local Contribution for L=            0  read in
    real space projection operators read in
  non local Contribution for L=            0  read in
    real space projection operators read in
  non local Contribution for L=            1  read in
    real space projection operators read in
  non local Contribution for L=            1  read in
    real space projection operators read in
    PAW grid and wavefunctions read in

   number of l-projection  operators is LMAX  =            4
   number of lm-projection operators is LMMAX =            8

 PAW_PBE Zn 06Sep2000                   :
 energy of atom  1       EATOM=-1749.0928
 kinetic energy error for atom=    0.0107 (will be added to EATOM!!)
 PAW_PBE O 08Apr2002                    :
 energy of atom  2       EATOM= -432.3788
 kinetic energy error for atom=    0.1156 (will be added to EATOM!!)


 POSCAR: POSCAR created by SUPERPOSCAR           
  positions in direct lattice
  No initial velocities read in
 exchange correlation table for  LEXCH =        8
   RHO(1)=    0.500       N(1)  =     2000
   RHO(2)=  100.500       N(2)  =     4000



--------------------------------------------------------------------------------------------------------


 ion  position               nearest neighbor table
   1  0.000  0.000  1.000 -   3 1.985   3 1.985   3 1.985   4 1.995
   2  0.333  0.667  0.500 -   4 1.985   4 1.985   4 1.985   3 1.995
   3  0.333  0.667  0.880 -   1 1.985   1 1.985   1 1.985   2 1.995
   4  0.000  0.000  0.380 -   2 1.985   2 1.985   2 1.985   1 1.995

  LATTYP: Found a hexagonal cell.
 ALAT       =     3.2605400000
 C/A-ratio  =     1.6100972000
  
  Lattice vectors:
  
 A1 = (   1.6302700000,  -2.8237104577,   0.0000000000)
 A2 = (   1.6302700000,   2.8237104577,   0.0000000000)
 A3 = (   0.0000000000,   0.0000000000,   5.2497863245)
 Subroutine PRICEL returns:
 Original cell was already a primitive cell.
 

Analysis of symmetry for initial positions (statically):

 Routine SETGRP: Setting up the symmetry group for a 
 hexagonal supercell.


 Subroutine GETGRP returns: Found 12 space group operations
 (whereof  6 operations were pure point group operations)
 out of a pool of 24 trial point group operations.


The static configuration has the point symmetry C_3v.
 The point group associated with its full space group is C_6v.

Analysis of symmetry for dynamics (positions and initial velocities):

 Subroutine DYNSYM returns: Found 12 space group operations
 (whereof  6 operations were pure point group operations)
 out of a pool of 12 trial space group operations
 (whereof  6 operations were pure point group operations)
 and found also     1 'primitive' translations


The dynamic configuration has the point symmetry C_3v.
 The point group associated with its full space group is C_6v.


 KPOINTS: Automatic generation                    

Automatic generation of k-mesh.
 
 Subroutine IBZKPT returns following result:
 ===========================================
 
 Found     56 irreducible k-points:
 
 Following reciprocal coordinates:
            Coordinates               Weight
  0.000000  0.000000  0.000000      1.000000
  0.100000  0.000000  0.000000      6.000000
  0.200000  0.000000  0.000000      6.000000
  0.300000  0.000000  0.000000      6.000000
  0.400000  0.000000  0.000000      6.000000
  0.500000  0.000000  0.000000      3.000000
  0.100000  0.100000  0.000000      6.000000
  0.200000  0.100000  0.000000     12.000000
  0.300000  0.100000  0.000000     12.000000
  0.400000  0.100000  0.000000     12.000000
  0.200000  0.200000  0.000000      6.000000
  0.300000  0.200000  0.000000     12.000000
  0.400000  0.200000  0.000000      6.000000
  0.300000  0.300000  0.000000      6.000000
  0.000000  0.000000  0.166667      2.000000
  0.100000  0.000000  0.166667     12.000000
  0.200000  0.000000  0.166667     12.000000
  0.300000  0.000000  0.166667     12.000000
  0.400000  0.000000  0.166667     12.000000
  0.500000  0.000000  0.166667      6.000000
  0.100000  0.100000  0.166667     12.000000
  0.200000  0.100000  0.166667     24.000000
  0.300000  0.100000  0.166667     24.000000
  0.400000  0.100000  0.166667     24.000000
  0.200000  0.200000  0.166667     12.000000
  0.300000  0.200000  0.166667     24.000000
  0.400000  0.200000  0.166667     12.000000
  0.300000  0.300000  0.166667     12.000000
  0.000000  0.000000  0.333333      2.000000
  0.100000  0.000000  0.333333     12.000000
  0.200000  0.000000  0.333333     12.000000
  0.300000  0.000000  0.333333     12.000000
  0.400000  0.000000  0.333333     12.000000
  0.500000  0.000000  0.333333      6.000000
  0.100000  0.100000  0.333333     12.000000
  0.200000  0.100000  0.333333     24.000000
  0.300000  0.100000  0.333333     24.000000
  0.400000  0.100000  0.333333     24.000000
  0.200000  0.200000  0.333333     12.000000
  0.300000  0.200000  0.333333     24.000000
  0.400000  0.200000  0.333333     12.000000
  0.300000  0.300000  0.333333     12.000000
  0.000000  0.000000  0.500000      1.000000
  0.100000  0.000000  0.500000      6.000000
  0.200000  0.000000  0.500000      6.000000
  0.300000  0.000000  0.500000      6.000000
  0.400000  0.000000  0.500000      6.000000
  0.500000  0.000000  0.500000      3.000000
  0.100000  0.100000  0.500000      6.000000
  0.200000  0.100000  0.500000     12.000000
  0.300000  0.100000  0.500000     12.000000
  0.400000  0.100000  0.500000     12.000000
  0.200000  0.200000  0.500000      6.000000
  0.300000  0.200000  0.500000     12.000000
  0.400000  0.200000  0.500000      6.000000
  0.300000  0.300000  0.500000      6.000000
 
 Following cartesian coordinates:
            Coordinates               Weight
  0.000000  0.000000  0.000000      1.000000
  0.100000 -0.057735  0.000000      6.000000
  0.200000 -0.115470  0.000000      6.000000
  0.300000 -0.173205  0.000000      6.000000
  0.400000 -0.230940  0.000000      6.000000
  0.500000 -0.288675  0.000000      3.000000
  0.200000  0.000000  0.000000      6.000000
  0.300000 -0.057735  0.000000     12.000000
  0.400000 -0.115470  0.000000     12.000000
  0.500000 -0.173205  0.000000     12.000000
  0.400000  0.000000  0.000000      6.000000
  0.500000 -0.057735  0.000000     12.000000
  0.600000 -0.115470  0.000000      6.000000
  0.600000  0.000000  0.000000      6.000000
  0.000000  0.000000  0.103513      2.000000
  0.100000 -0.057735  0.103513     12.000000
  0.200000 -0.115470  0.103513     12.000000
  0.300000 -0.173205  0.103513     12.000000
  0.400000 -0.230940  0.103513     12.000000
  0.500000 -0.288675  0.103513      6.000000
  0.200000  0.000000  0.103513     12.000000
  0.300000 -0.057735  0.103513     24.000000
  0.400000 -0.115470  0.103513     24.000000
  0.500000 -0.173205  0.103513     24.000000
  0.400000  0.000000  0.103513     12.000000
  0.500000 -0.057735  0.103513     24.000000
  0.600000 -0.115470  0.103513     12.000000
  0.600000  0.000000  0.103513     12.000000
  0.000000  0.000000  0.207027      2.000000
  0.100000 -0.057735  0.207027     12.000000
  0.200000 -0.115470  0.207027     12.000000
  0.300000 -0.173205  0.207027     12.000000
  0.400000 -0.230940  0.207027     12.000000
  0.500000 -0.288675  0.207027      6.000000
  0.200000  0.000000  0.207027     12.000000
  0.300000 -0.057735  0.207027     24.000000
  0.400000 -0.115470  0.207027     24.000000
  0.500000 -0.173205  0.207027     24.000000
  0.400000  0.000000  0.207027     12.000000
  0.500000 -0.057735  0.207027     24.000000
  0.600000 -0.115470  0.207027     12.000000
  0.600000  0.000000  0.207027     12.000000
  0.000000  0.000000  0.310540      1.000000
  0.100000 -0.057735  0.310540      6.000000
  0.200000 -0.115470  0.310540      6.000000
  0.300000 -0.173205  0.310540      6.000000
  0.400000 -0.230940  0.310540      6.000000
  0.500000 -0.288675  0.310540      3.000000
  0.200000  0.000000  0.310540      6.000000
  0.300000 -0.057735  0.310540     12.000000
  0.400000 -0.115470  0.310540     12.000000
  0.500000 -0.173205  0.310540     12.000000
  0.400000  0.000000  0.310540      6.000000
  0.500000 -0.057735  0.310540     12.000000
  0.600000 -0.115470  0.310540      6.000000
  0.600000  0.000000  0.310540      6.000000
 
 
 Subroutine IBZKPT_HF returns following result:
 ==============================================
 
 Found    600 k-points in 1st BZ
 the following    600 k-points will be used (e.g. in the exchange kernel)
 Following reciprocal coordinates:   # in IRBZ
  0.000000  0.000000  0.000000       1
  0.100000  0.000000  0.000000       2
  0.200000  0.000000  0.000000       3
  0.300000  0.000000  0.000000       4
  0.400000  0.000000  0.000000       5
  0.500000  0.000000  0.000000       6
  0.100000  0.100000  0.000000       7
  0.200000  0.100000  0.000000       8
  0.300000  0.100000  0.000000       9
  0.400000  0.100000  0.000000      10
  0.200000  0.200000  0.000000      11
  0.300000  0.200000  0.000000      12
  0.400000  0.200000  0.000000      13
  0.300000  0.300000  0.000000      14
  0.000000  0.000000  0.166667      15
  0.100000  0.000000  0.166667      16
  0.200000  0.000000  0.166667      17
  0.300000  0.000000  0.166667      18
  0.400000  0.000000  0.166667      19
  0.500000  0.000000  0.166667      20
  0.100000  0.100000  0.166667      21
  0.200000  0.100000  0.166667      22
  0.300000  0.100000  0.166667      23
  0.400000  0.100000  0.166667      24
  0.200000  0.200000  0.166667      25
  0.300000  0.200000  0.166667      26
  0.400000  0.200000  0.166667      27
  0.300000  0.300000  0.166667      28
  0.000000  0.000000  0.333333      29
  0.100000  0.000000  0.333333      30
  0.200000  0.000000  0.333333      31
  0.300000  0.000000  0.333333      32
  0.400000  0.000000  0.333333      33
  0.500000  0.000000  0.333333      34
  0.100000  0.100000  0.333333      35
  0.200000  0.100000  0.333333      36
  0.300000  0.100000  0.333333      37
  0.400000  0.100000  0.333333      38
  0.200000  0.200000  0.333333      39
  0.300000  0.200000  0.333333      40
  0.400000  0.200000  0.333333      41
  0.300000  0.300000  0.333333      42
  0.000000  0.000000  0.500000      43
  0.100000  0.000000  0.500000      44
  0.200000  0.000000  0.500000      45
  0.300000  0.000000  0.500000      46
  0.400000  0.000000  0.500000      47
  0.500000  0.000000  0.500000      48
  0.100000  0.100000  0.500000      49
  0.200000  0.100000  0.500000      50
  0.300000  0.100000  0.500000      51
  0.400000  0.100000  0.500000      52
  0.200000  0.200000  0.500000      53
  0.300000  0.200000  0.500000      54
  0.400000  0.200000  0.500000      55
  0.300000  0.300000  0.500000      56
 -0.100000  0.100000  0.000000       2
  0.000000 -0.100000  0.000000       2
  0.000000  0.100000  0.000000       2
 -0.100000  0.000000  0.000000       2
  0.100000 -0.100000  0.000000       2
 -0.200000  0.200000  0.000000       3
  0.000000 -0.200000  0.000000       3
  0.000000  0.200000  0.000000       3
 -0.200000  0.000000  0.000000       3
  0.200000 -0.200000  0.000000       3
 -0.300000  0.300000  0.000000       4
  0.000000 -0.300000  0.000000       4
  0.000000  0.300000  0.000000       4
 -0.300000  0.000000  0.000000       4
  0.300000 -0.300000  0.000000       4
 -0.400000  0.400000  0.000000       5
  0.000000 -0.400000  0.000000       5
  0.000000  0.400000  0.000000       5
 -0.400000  0.000000  0.000000       5
  0.400000 -0.400000  0.000000       5
 -0.500000  0.500000  0.000000       6
  0.000000 -0.500000  0.000000       6
 -0.200000  0.100000  0.000000       7
  0.100000 -0.200000  0.000000       7
 -0.100000  0.200000  0.000000       7
  0.200000 -0.100000  0.000000       7
 -0.100000 -0.100000  0.000000       7
 -0.300000  0.200000  0.000000       8
  0.100000 -0.300000  0.000000       8
 -0.200000  0.300000  0.000000       8
  0.300000 -0.100000  0.000000       8
 -0.100000 -0.200000  0.000000       8
 -0.100000  0.300000  0.000000       8
 -0.200000 -0.100000  0.000000       8
  0.300000 -0.200000  0.000000       8
  0.100000  0.200000  0.000000       8
  0.200000 -0.300000  0.000000       8
 -0.300000  0.100000  0.000000       8
 -0.400000  0.300000  0.000000       9
  0.100000 -0.400000  0.000000       9
 -0.300000  0.400000  0.000000       9
  0.400000 -0.100000  0.000000       9
 -0.100000 -0.300000  0.000000       9
 -0.100000  0.400000  0.000000       9
 -0.300000 -0.100000  0.000000       9
  0.400000 -0.300000  0.000000       9
  0.100000  0.300000  0.000000       9
  0.300000 -0.400000  0.000000       9
 -0.400000  0.100000  0.000000       9
 -0.500000  0.400000  0.000000      10
  0.100000 -0.500000  0.000000      10
 -0.400000  0.500000  0.000000      10
  0.500000 -0.100000  0.000000      10
 -0.100000 -0.400000  0.000000      10
 -0.100000  0.500000  0.000000      10
 -0.400000 -0.100000  0.000000      10
  0.500000 -0.400000  0.000000      10
  0.100000  0.400000  0.000000      10
  0.400000 -0.500000  0.000000      10
 -0.500000  0.100000  0.000000      10
 -0.400000  0.200000  0.000000      11
  0.200000 -0.400000  0.000000      11
 -0.200000  0.400000  0.000000      11
  0.400000 -0.200000  0.000000      11
 -0.200000 -0.200000  0.000000      11
 -0.500000  0.300000  0.000000      12
  0.200000 -0.500000  0.000000      12
 -0.300000  0.500000  0.000000      12
  0.500000 -0.200000  0.000000      12
 -0.200000 -0.300000  0.000000      12
 -0.200000  0.500000  0.000000      12
 -0.300000 -0.200000  0.000000      12
  0.500000 -0.300000  0.000000      12
  0.200000  0.300000  0.000000      12
  0.300000 -0.500000  0.000000      12
 -0.500000  0.200000  0.000000      12
 -0.600000  0.400000  0.000000      13
  0.200000 -0.600000  0.000000      13
 -0.400000  0.600000  0.000000      13
  0.600000 -0.200000  0.000000      13
 -0.200000 -0.400000  0.000000      13
 -0.600000  0.300000  0.000000      14
  0.300000 -0.600000  0.000000      14
 -0.300000  0.600000  0.000000      14
  0.600000 -0.300000  0.000000      14
 -0.300000 -0.300000  0.000000      14
 -0.100000  0.100000  0.166667      16
  0.000000 -0.100000  0.166667      16
  0.000000  0.100000  0.166667      16
 -0.100000  0.000000  0.166667      16
  0.100000 -0.100000  0.166667      16
 -0.200000  0.200000  0.166667      17
  0.000000 -0.200000  0.166667      17
  0.000000  0.200000  0.166667      17
 -0.200000  0.000000  0.166667      17
  0.200000 -0.200000  0.166667      17
 -0.300000  0.300000  0.166667      18
  0.000000 -0.300000  0.166667      18
  0.000000  0.300000  0.166667      18
 -0.300000  0.000000  0.166667      18
  0.300000 -0.300000  0.166667      18
 -0.400000  0.400000  0.166667      19
  0.000000 -0.400000  0.166667      19
  0.000000  0.400000  0.166667      19
 -0.400000  0.000000  0.166667      19
  0.400000 -0.400000  0.166667      19
 -0.500000  0.500000  0.166667      20
  0.000000 -0.500000  0.166667      20
 -0.200000  0.100000  0.166667      21
  0.100000 -0.200000  0.166667      21
 -0.100000  0.200000  0.166667      21
  0.200000 -0.100000  0.166667      21
 -0.100000 -0.100000  0.166667      21
 -0.300000  0.200000  0.166667      22
  0.100000 -0.300000  0.166667      22
 -0.200000  0.300000  0.166667      22
  0.300000 -0.100000  0.166667      22
 -0.100000 -0.200000  0.166667      22
 -0.100000  0.300000  0.166667      22
 -0.200000 -0.100000  0.166667      22
  0.300000 -0.200000  0.166667      22
  0.100000  0.200000  0.166667      22
  0.200000 -0.300000  0.166667      22
 -0.300000  0.100000  0.166667      22
 -0.400000  0.300000  0.166667      23
  0.100000 -0.400000  0.166667      23
 -0.300000  0.400000  0.166667      23
  0.400000 -0.100000  0.166667      23
 -0.100000 -0.300000  0.166667      23
 -0.100000  0.400000  0.166667      23
 -0.300000 -0.100000  0.166667      23
  0.400000 -0.300000  0.166667      23
  0.100000  0.300000  0.166667      23
  0.300000 -0.400000  0.166667      23
 -0.400000  0.100000  0.166667      23
 -0.500000  0.400000  0.166667      24
  0.100000 -0.500000  0.166667      24
 -0.400000  0.500000  0.166667      24
  0.500000 -0.100000  0.166667      24
 -0.100000 -0.400000  0.166667      24
 -0.100000  0.500000  0.166667      24
 -0.400000 -0.100000  0.166667      24
  0.500000 -0.400000  0.166667      24
  0.100000  0.400000  0.166667      24
  0.400000 -0.500000  0.166667      24
 -0.500000  0.100000  0.166667      24
 -0.400000  0.200000  0.166667      25
  0.200000 -0.400000  0.166667      25
 -0.200000  0.400000  0.166667      25
  0.400000 -0.200000  0.166667      25
 -0.200000 -0.200000  0.166667      25
 -0.500000  0.300000  0.166667      26
  0.200000 -0.500000  0.166667      26
 -0.300000  0.500000  0.166667      26
  0.500000 -0.200000  0.166667      26
 -0.200000 -0.300000  0.166667      26
 -0.200000  0.500000  0.166667      26
 -0.300000 -0.200000  0.166667      26
  0.500000 -0.300000  0.166667      26
  0.200000  0.300000  0.166667      26
  0.300000 -0.500000  0.166667      26
 -0.500000  0.200000  0.166667      26
 -0.600000  0.400000  0.166667      27
  0.200000 -0.600000  0.166667      27
 -0.400000  0.600000  0.166667      27
  0.600000 -0.200000  0.166667      27
 -0.200000 -0.400000  0.166667      27
 -0.600000  0.300000  0.166667      28
  0.300000 -0.600000  0.166667      28
 -0.300000  0.600000  0.166667      28
  0.600000 -0.300000  0.166667      28
 -0.300000 -0.300000  0.166667      28
 -0.100000  0.100000  0.333333      30
  0.000000 -0.100000  0.333333      30
  0.000000  0.100000  0.333333      30
 -0.100000  0.000000  0.333333      30
  0.100000 -0.100000  0.333333      30
 -0.200000  0.200000  0.333333      31
  0.000000 -0.200000  0.333333      31
  0.000000  0.200000  0.333333      31
 -0.200000  0.000000  0.333333      31
  0.200000 -0.200000  0.333333      31
 -0.300000  0.300000  0.333333      32
  0.000000 -0.300000  0.333333      32
  0.000000  0.300000  0.333333      32
 -0.300000  0.000000  0.333333      32
  0.300000 -0.300000  0.333333      32
 -0.400000  0.400000  0.333333      33
  0.000000 -0.400000  0.333333      33
  0.000000  0.400000  0.333333      33
 -0.400000  0.000000  0.333333      33
  0.400000 -0.400000  0.333333      33
 -0.500000  0.500000  0.333333      34
  0.000000 -0.500000  0.333333      34
 -0.200000  0.100000  0.333333      35
  0.100000 -0.200000  0.333333      35
 -0.100000  0.200000  0.333333      35
  0.200000 -0.100000  0.333333      35
 -0.100000 -0.100000  0.333333      35
 -0.300000  0.200000  0.333333      36
  0.100000 -0.300000  0.333333      36
 -0.200000  0.300000  0.333333      36
  0.300000 -0.100000  0.333333      36
 -0.100000 -0.200000  0.333333      36
 -0.100000  0.300000  0.333333      36
 -0.200000 -0.100000  0.333333      36
  0.300000 -0.200000  0.333333      36
  0.100000  0.200000  0.333333      36
  0.200000 -0.300000  0.333333      36
 -0.300000  0.100000  0.333333      36
 -0.400000  0.300000  0.333333      37
  0.100000 -0.400000  0.333333      37
 -0.300000  0.400000  0.333333      37
  0.400000 -0.100000  0.333333      37
 -0.100000 -0.300000  0.333333      37
 -0.100000  0.400000  0.333333      37
 -0.300000 -0.100000  0.333333      37
  0.400000 -0.300000  0.333333      37
  0.100000  0.300000  0.333333      37
  0.300000 -0.400000  0.333333      37
 -0.400000  0.100000  0.333333      37
 -0.500000  0.400000  0.333333      38
  0.100000 -0.500000  0.333333      38
 -0.400000  0.500000  0.333333      38
  0.500000 -0.100000  0.333333      38
 -0.100000 -0.400000  0.333333      38
 -0.100000  0.500000  0.333333      38
 -0.400000 -0.100000  0.333333      38
  0.500000 -0.400000  0.333333      38
  0.100000  0.400000  0.333333      38
  0.400000 -0.500000  0.333333      38
 -0.500000  0.100000  0.333333      38
 -0.400000  0.200000  0.333333      39
  0.200000 -0.400000  0.333333      39
 -0.200000  0.400000  0.333333      39
  0.400000 -0.200000  0.333333      39
 -0.200000 -0.200000  0.333333      39
 -0.500000  0.300000  0.333333      40
  0.200000 -0.500000  0.333333      40
 -0.300000  0.500000  0.333333      40
  0.500000 -0.200000  0.333333      40
 -0.200000 -0.300000  0.333333      40
 -0.200000  0.500000  0.333333      40
 -0.300000 -0.200000  0.333333      40
  0.500000 -0.300000  0.333333      40
  0.200000  0.300000  0.333333      40
  0.300000 -0.500000  0.333333      40
 -0.500000  0.200000  0.333333      40
 -0.600000  0.400000  0.333333      41
  0.200000 -0.600000  0.333333      41
 -0.400000  0.600000  0.333333      41
  0.600000 -0.200000  0.333333      41
 -0.200000 -0.400000  0.333333      41
 -0.600000  0.300000  0.333333      42
  0.300000 -0.600000  0.333333      42
 -0.300000  0.600000  0.333333      42
  0.600000 -0.300000  0.333333      42
 -0.300000 -0.300000  0.333333      42
 -0.100000  0.100000  0.500000      44
  0.000000 -0.100000  0.500000      44
  0.000000  0.100000  0.500000      44
 -0.100000  0.000000  0.500000      44
  0.100000 -0.100000  0.500000      44
 -0.200000  0.200000  0.500000      45
  0.000000 -0.200000  0.500000      45
  0.000000  0.200000  0.500000      45
 -0.200000  0.000000  0.500000      45
  0.200000 -0.200000  0.500000      45
 -0.300000  0.300000  0.500000      46
  0.000000 -0.300000  0.500000      46
  0.000000  0.300000  0.500000      46
 -0.300000  0.000000  0.500000      46
  0.300000 -0.300000  0.500000      46
 -0.400000  0.400000  0.500000      47
  0.000000 -0.400000  0.500000      47
  0.000000  0.400000  0.500000      47
 -0.400000  0.000000  0.500000      47
  0.400000 -0.400000  0.500000      47
 -0.500000  0.500000  0.500000      48
  0.000000 -0.500000  0.500000      48
 -0.200000  0.100000  0.500000      49
  0.100000 -0.200000  0.500000      49
 -0.100000  0.200000  0.500000      49
  0.200000 -0.100000  0.500000      49
 -0.100000 -0.100000  0.500000      49
 -0.300000  0.200000  0.500000      50
  0.100000 -0.300000  0.500000      50
 -0.200000  0.300000  0.500000      50
  0.300000 -0.100000  0.500000      50
 -0.100000 -0.200000  0.500000      50
 -0.100000  0.300000  0.500000      50
 -0.200000 -0.100000  0.500000      50
  0.300000 -0.200000  0.500000      50
  0.100000  0.200000  0.500000      50
  0.200000 -0.300000  0.500000      50
 -0.300000  0.100000  0.500000      50
 -0.400000  0.300000  0.500000      51
  0.100000 -0.400000  0.500000      51
 -0.300000  0.400000  0.500000      51
  0.400000 -0.100000  0.500000      51
 -0.100000 -0.300000  0.500000      51
 -0.100000  0.400000  0.500000      51
 -0.300000 -0.100000  0.500000      51
  0.400000 -0.300000  0.500000      51
  0.100000  0.300000  0.500000      51
  0.300000 -0.400000  0.500000      51
 -0.400000  0.100000  0.500000      51
 -0.500000  0.400000  0.500000      52
  0.100000 -0.500000  0.500000      52
 -0.400000  0.500000  0.500000      52
  0.500000 -0.100000  0.500000      52
 -0.100000 -0.400000  0.500000      52
 -0.100000  0.500000  0.500000      52
 -0.400000 -0.100000  0.500000      52
  0.500000 -0.400000  0.500000      52
  0.100000  0.400000  0.500000      52
  0.400000 -0.500000  0.500000      52
 -0.500000  0.100000  0.500000      52
 -0.400000  0.200000  0.500000      53
  0.200000 -0.400000  0.500000      53
 -0.200000  0.400000  0.500000      53
  0.400000 -0.200000  0.500000      53
 -0.200000 -0.200000  0.500000      53
 -0.500000  0.300000  0.500000      54
  0.200000 -0.500000  0.500000      54
 -0.300000  0.500000  0.500000      54
  0.500000 -0.200000  0.500000      54
 -0.200000 -0.300000  0.500000      54
 -0.200000  0.500000  0.500000      54
 -0.300000 -0.200000  0.500000      54
  0.500000 -0.300000  0.500000      54
  0.200000  0.300000  0.500000      54
  0.300000 -0.500000  0.500000      54
 -0.500000  0.200000  0.500000      54
 -0.600000  0.400000  0.500000      55
  0.200000 -0.600000  0.500000      55
 -0.400000  0.600000  0.500000      55
  0.600000 -0.200000  0.500000      55
 -0.200000 -0.400000  0.500000      55
 -0.600000  0.300000  0.500000      56
  0.300000 -0.600000  0.500000      56
 -0.300000  0.600000  0.500000      56
  0.600000 -0.300000  0.500000      56
 -0.300000 -0.300000  0.500000      56
  0.000000  0.000000 -0.166667      15
 -0.100000  0.000000 -0.166667      16
  0.100000 -0.100000 -0.166667      16
  0.000000  0.100000 -0.166667      16
  0.000000 -0.100000 -0.166667      16
  0.100000  0.000000 -0.166667      16
 -0.100000  0.100000 -0.166667      16
 -0.200000  0.000000 -0.166667      17
  0.200000 -0.200000 -0.166667      17
  0.000000  0.200000 -0.166667      17
  0.000000 -0.200000 -0.166667      17
  0.200000  0.000000 -0.166667      17
 -0.200000  0.200000 -0.166667      17
 -0.300000  0.000000 -0.166667      18
  0.300000 -0.300000 -0.166667      18
  0.000000  0.300000 -0.166667      18
  0.000000 -0.300000 -0.166667      18
  0.300000  0.000000 -0.166667      18
 -0.300000  0.300000 -0.166667      18
 -0.400000  0.000000 -0.166667      19
  0.400000 -0.400000 -0.166667      19
  0.000000  0.400000 -0.166667      19
  0.000000 -0.400000 -0.166667      19
  0.400000  0.000000 -0.166667      19
 -0.400000  0.400000 -0.166667      19
 -0.500000  0.000000 -0.166667      20
  0.500000 -0.500000 -0.166667      20
  0.000000  0.500000 -0.166667      20
 -0.100000 -0.100000 -0.166667      21
  0.200000 -0.100000 -0.166667      21
 -0.100000  0.200000 -0.166667      21
  0.100000 -0.200000 -0.166667      21
 -0.200000  0.100000 -0.166667      21
  0.100000  0.100000 -0.166667      21
 -0.200000 -0.100000 -0.166667      22
  0.300000 -0.200000 -0.166667      22
 -0.100000  0.300000 -0.166667      22
  0.200000 -0.300000 -0.166667      22
 -0.300000  0.100000 -0.166667      22
  0.100000  0.200000 -0.166667      22
  0.100000 -0.300000 -0.166667      22
  0.200000  0.100000 -0.166667      22
 -0.300000  0.200000 -0.166667      22
 -0.100000 -0.200000 -0.166667      22
 -0.200000  0.300000 -0.166667      22
  0.300000 -0.100000 -0.166667      22
 -0.300000 -0.100000 -0.166667      23
  0.400000 -0.300000 -0.166667      23
 -0.100000  0.400000 -0.166667      23
  0.300000 -0.400000 -0.166667      23
 -0.400000  0.100000 -0.166667      23
  0.100000  0.300000 -0.166667      23
  0.100000 -0.400000 -0.166667      23
  0.300000  0.100000 -0.166667      23
 -0.400000  0.300000 -0.166667      23
 -0.100000 -0.300000 -0.166667      23
 -0.300000  0.400000 -0.166667      23
  0.400000 -0.100000 -0.166667      23
 -0.400000 -0.100000 -0.166667      24
  0.500000 -0.400000 -0.166667      24
 -0.100000  0.500000 -0.166667      24
  0.400000 -0.500000 -0.166667      24
 -0.500000  0.100000 -0.166667      24
  0.100000  0.400000 -0.166667      24
  0.100000 -0.500000 -0.166667      24
  0.400000  0.100000 -0.166667      24
 -0.500000  0.400000 -0.166667      24
 -0.100000 -0.400000 -0.166667      24
 -0.400000  0.500000 -0.166667      24
  0.500000 -0.100000 -0.166667      24
 -0.200000 -0.200000 -0.166667      25
  0.400000 -0.200000 -0.166667      25
 -0.200000  0.400000 -0.166667      25
  0.200000 -0.400000 -0.166667      25
 -0.400000  0.200000 -0.166667      25
  0.200000  0.200000 -0.166667      25
 -0.300000 -0.200000 -0.166667      26
  0.500000 -0.300000 -0.166667      26
 -0.200000  0.500000 -0.166667      26
  0.300000 -0.500000 -0.166667      26
 -0.500000  0.200000 -0.166667      26
  0.200000  0.300000 -0.166667      26
  0.200000 -0.500000 -0.166667      26
  0.300000  0.200000 -0.166667      26
 -0.500000  0.300000 -0.166667      26
 -0.200000 -0.300000 -0.166667      26
 -0.300000  0.500000 -0.166667      26
  0.500000 -0.200000 -0.166667      26
 -0.400000 -0.200000 -0.166667      27
  0.600000 -0.400000 -0.166667      27
 -0.200000  0.600000 -0.166667      27
  0.400000 -0.600000 -0.166667      27
 -0.600000  0.200000 -0.166667      27
  0.200000  0.400000 -0.166667      27
 -0.300000 -0.300000 -0.166667      28
  0.600000 -0.300000 -0.166667      28
 -0.300000  0.600000 -0.166667      28
  0.300000 -0.600000 -0.166667      28
 -0.600000  0.300000 -0.166667      28
  0.300000  0.300000 -0.166667      28
  0.000000  0.000000 -0.333333      29
 -0.100000  0.000000 -0.333333      30
  0.100000 -0.100000 -0.333333      30
  0.000000  0.100000 -0.333333      30
  0.000000 -0.100000 -0.333333      30
  0.100000  0.000000 -0.333333      30
 -0.100000  0.100000 -0.333333      30
 -0.200000  0.000000 -0.333333      31
  0.200000 -0.200000 -0.333333      31
  0.000000  0.200000 -0.333333      31
  0.000000 -0.200000 -0.333333      31
  0.200000  0.000000 -0.333333      31
 -0.200000  0.200000 -0.333333      31
 -0.300000  0.000000 -0.333333      32
  0.300000 -0.300000 -0.333333      32
  0.000000  0.300000 -0.333333      32
  0.000000 -0.300000 -0.333333      32
  0.300000  0.000000 -0.333333      32
 -0.300000  0.300000 -0.333333      32
 -0.400000  0.000000 -0.333333      33
  0.400000 -0.400000 -0.333333      33
  0.000000  0.400000 -0.333333      33
  0.000000 -0.400000 -0.333333      33
  0.400000  0.000000 -0.333333      33
 -0.400000  0.400000 -0.333333      33
 -0.500000  0.000000 -0.333333      34
  0.500000 -0.500000 -0.333333      34
  0.000000  0.500000 -0.333333      34
 -0.100000 -0.100000 -0.333333      35
  0.200000 -0.100000 -0.333333      35
 -0.100000  0.200000 -0.333333      35
  0.100000 -0.200000 -0.333333      35
 -0.200000  0.100000 -0.333333      35
  0.100000  0.100000 -0.333333      35
 -0.200000 -0.100000 -0.333333      36
  0.300000 -0.200000 -0.333333      36
 -0.100000  0.300000 -0.333333      36
  0.200000 -0.300000 -0.333333      36
 -0.300000  0.100000 -0.333333      36
  0.100000  0.200000 -0.333333      36
  0.100000 -0.300000 -0.333333      36
  0.200000  0.100000 -0.333333      36
 -0.300000  0.200000 -0.333333      36
 -0.100000 -0.200000 -0.333333      36
 -0.200000  0.300000 -0.333333      36
  0.300000 -0.100000 -0.333333      36
 -0.300000 -0.100000 -0.333333      37
  0.400000 -0.300000 -0.333333      37
 -0.100000  0.400000 -0.333333      37
  0.300000 -0.400000 -0.333333      37
 -0.400000  0.100000 -0.333333      37
  0.100000  0.300000 -0.333333      37
  0.100000 -0.400000 -0.333333      37
  0.300000  0.100000 -0.333333      37
 -0.400000  0.300000 -0.333333      37
 -0.100000 -0.300000 -0.333333      37
 -0.300000  0.400000 -0.333333      37
  0.400000 -0.100000 -0.333333      37
 -0.400000 -0.100000 -0.333333      38
  0.500000 -0.400000 -0.333333      38
 -0.100000  0.500000 -0.333333      38
  0.400000 -0.500000 -0.333333      38
 -0.500000  0.100000 -0.333333      38
  0.100000  0.400000 -0.333333      38
  0.100000 -0.500000 -0.333333      38
  0.400000  0.100000 -0.333333      38
 -0.500000  0.400000 -0.333333      38
 -0.100000 -0.400000 -0.333333      38
 -0.400000  0.500000 -0.333333      38
  0.500000 -0.100000 -0.333333      38
 -0.200000 -0.200000 -0.333333      39
  0.400000 -0.200000 -0.333333      39
 -0.200000  0.400000 -0.333333      39
  0.200000 -0.400000 -0.333333      39
 -0.400000  0.200000 -0.333333      39
  0.200000  0.200000 -0.333333      39
 -0.300000 -0.200000 -0.333333      40
  0.500000 -0.300000 -0.333333      40
 -0.200000  0.500000 -0.333333      40
  0.300000 -0.500000 -0.333333      40
 -0.500000  0.200000 -0.333333      40
  0.200000  0.300000 -0.333333      40
  0.200000 -0.500000 -0.333333      40
  0.300000  0.200000 -0.333333      40
 -0.500000  0.300000 -0.333333      40
 -0.200000 -0.300000 -0.333333      40
 -0.300000  0.500000 -0.333333      40
  0.500000 -0.200000 -0.333333      40
 -0.400000 -0.200000 -0.333333      41
  0.600000 -0.400000 -0.333333      41
 -0.200000  0.600000 -0.333333      41
  0.400000 -0.600000 -0.333333      41
 -0.600000  0.200000 -0.333333      41
  0.200000  0.400000 -0.333333      41
 -0.300000 -0.300000 -0.333333      42
  0.600000 -0.300000 -0.333333      42
 -0.300000  0.600000 -0.333333      42
  0.300000 -0.600000 -0.333333      42
 -0.600000  0.300000 -0.333333      42
  0.300000  0.300000 -0.333333      42


--------------------------------------------------------------------------------------------------------




 Dimension of arrays:
   k-points           NKPTS =     56   k-points in BZ     NKDIM =    600   number of bands    NBANDS=    200
   number of dos      NEDOS =    301   number of ions     NIONS =      4
   non local maximal  LDIM  =      6   non local SUM 2l+1 LMDIM =     18
   total plane-waves  NPLWV =  20736
   max r-space proj   IRMAX =      1   max aug-charges    IRDMAX= 102486
   dimension x,y,z NGX =    24 NGY =   24 NGZ =   36
   dimension x,y,z NGXF=    48 NGYF=   48 NGZF=   72
   support grid    NGXF=    96 NGYF=   96 NGZF=  144
   ions per type =               2   2
 NGX,Y,Z   is equivalent  to a cutoff of  12.24, 12.24, 11.40 a.u.
 NGXF,Y,Z  is equivalent  to a cutoff of  24.47, 24.47, 22.80 a.u.


 I would recommend the setting:
   dimension x,y,z NGX =    21 NGY =   21 NGZ =   34
 SYSTEM =  ZnO                                     
 POSCAR =  POSCAR created by SUPERPOSCAR           

 Startparameter for this run:
   NWRITE =      2    write-flag & timer
   PREC   = accura    medium, high low
   ISTART =      1    job   : 0-new  1-cont  2-samecut
   ICHARG =      0    charge: 1-file 2-atom 10-const
   ISPIN  =      1    spin polarized calculation?
   LNONCOLLINEAR =      F non collinear calculations
   LSORBIT =      F    spin-orbit coupling
   INIWAV =      1    electr: 0-lowe 1-rand  2-diag
   LASPH  =      F    aspherical Exc in radial PAW
   METAGGA=      F    non-selfconsistent MetaGGA calc.

 Electronic Relaxation 1
   ENCUT  =  400.0 eV  29.40 Ry    5.42 a.u.   5.32  5.32  8.56*2*pi/ulx,y,z
   ENINI  =  400.0     initial cutoff
   ENAUG  =  605.4 eV  augmentation charge cutoff
   NELM   =     60;   NELMIN=  2; NELMDL=  0     # of ELM steps 
   EDIFF  = 0.1E-03   stopping-criterion for ELM
   LREAL  =      F    real-space projection
   LCOMPAT=      F    compatible to vasp.4.4
   LREAL_COMPAT= F    compatible to vasp.4.5.1-3
   GGA_COMPAT  = T    GGA compatible to vasp.4.4-vasp.4.6
   LMAXPAW     = -100 max onsite density
   LMAXMIX     =    4 max onsite mixed and CHGCAR
   VOSKOWN=      0    Vosko Wilk Nusair interpolation
   ROPT   =    0.00000   0.00000
 Ionic relaxation
   EDIFFG = 0.1E-02   stopping-criterion for IOM
   NSW    =      0    number of steps for IOM
   NBLOCK =      1;   KBLOCK =      1    inner block; outer block 
   IBRION =     -1    ionic relax: 0-MD 1-quasi-New 2-CG
   NFREE  =      0    steps in history (QN), initial steepest desc. (CG)
   ISIF   =      0    stress and relaxation
   IWAVPR =     10    prediction:  0-non 1-charg 2-wave 3-comb
   ISYM   =      3    0-nonsym 1-usesym 2-fastsym
   LCORR  =      T    Harris-Foulkes like correction to forces

   POTIM  = 0.5000    time-step for ionic-motion
   TEIN   =    0.0    initial temperature
   TEBEG  =    0.0;   TEEND  =   0.0 temperature during run
   SMASS  =  -3.00    Nose mass-parameter (am)
   estimated Nose-frequenzy (Omega)   =  0.10E-29 period in steps =****** mass=  -0.243E-27a.u.
   NPACO  =    256;   APACO  = 16.0  distance and # of slots for P.C.
   PSTRESS=    0.0 pullay stress

  Mass of Ions in am
   POMASS =  65.39 16.00
  Ionic Valenz
   ZVAL   =  12.00  6.00
  Atomic Wigner-Seitz radii
   RWIGS  =   1.20  1.20
   NELECT =      36.0000    total number of electrons
   NUPDOWN=      -1.0000    fix difference up-down

 DOS related values:
   EMIN   =  10.00;   EMAX   =-10.00  energy-range for DOS
   EFERMI =   0.00
   ISMEAR =     0;   SIGMA  =   0.01  broadening in eV -4-tet -1-fermi 0-gaus

 Electronic relaxation 2 (details)
   IALGO  =     58    algorithm
   LDIAG  =      T    sub-space diagonalisation
   IMIX   =      4    mixing-type and parameters
     AMIX     =   0.40;   BMIX     =  1.00
     AMIX_MAG =   1.60;   BMIX_MAG =  1.00
     AMIN     =   0.10
     WC   =   100.;   INIMIX=   1;  MIXPRE=   1

 Intra band minimization:
   WEIMIN = 0.0000     energy-eigenvalue tresh-hold
   EBREAK =  0.12E-06  absolut break condition
   DEPER  =   0.30     relativ break condition  

   TIME   =   0.40     timestep for ELM

  volume/ion in A,a.u.               =      12.08        81.54
  Fermi-wavevector in a.u.,A,eV,Ry     =   1.483970  2.804297 29.962315  2.202168
  Thomas-Fermi vector in A             =   2.597565

 Write flags
   LWAVE  =      T    write WAVECAR
   LCHARG =      T    write CHGCAR
   LVTOT  =      F    write LOCPOT, local potential
   LELF   =      F    write electronic localiz. function (ELF)
   LORBIT =     10    0 simple, 1 ext, 2 COOP (PROOUT)


 Dipole corrections
   LMONO  =      F    monopole corrections only (constant potential shift)
   LDIPOL =      F    correct potential (dipole corrections)
   IDIPOL =      0    1-x, 2-y, 3-z, 4-all directions 
   EPSILON=  1.0000000 bulk dielectric constant

 Exchange correlation treatment:
   GGA     =    --    GGA type
   LEXCH   =     8    internal setting for exchange type
   VOSKOWN=      0    Vosko Wilk Nusair interpolation
   EXXOEP  =     0    0=HF, 1=EXX-LHF (local Hartree Fock) 2=EXX OEP
   LHFCALC =     T    Hartree Fock is set to
   LRHFCALC=     F    long range Hartree Fock
   LRSCOR  =     F    long range correlation only (use DFT for short range part)
   LTHOMAS =     F    Thomas Fermi screening in HF
   LMODELHF=     F    short range full HF, long range fraction AEXX
   ENCUTFOCK= 120.0   cutoff for exchange potential in eV
   ENCUT4O =  -1.0   cutoff for four orbital integrals eV
   LMAXFOCK=     4    L truncation for augmentation on plane wave grid
   LMAXFOCKAE=  -1    L truncation for all-electron charge restoration on plane wave grid
   NMAXFOCKAE=   1    number of basis functions for all-electron charge restoration
   NKREDX  =     2    reduce k-point grid by
   NKREDY  =     2    reduce k-point grid by
   NKREDZ  =     2    reduce k-point grid by
   SHIFTRED=     F    shift reduced grid of Gamma
   HFKIDENT=     F    idential grid for each k-point
   ODDONLY =     F    use only odd q-grid points
   EVENONLY=     F    use only even q-grid points
   HFALPHA =   -1.0000 decay constant for conv. correction
   AEXX    =    0.2500 exact exchange contribution
   HFSCREEN=    0.2000 screening length (either q_TF or 0.3 A-1)
   HFSCREENC=   0.2000 screening length for correlation (either q_TF or 0.3 A-1)
   HFRCUT  =    0.0000 spherical cutoff for potential kernel
   ALDAX   =    0.7500 LDA exchange part
   AGGAX   =    0.7500 GGA exchange part
   ALDAC   =    1.0000 LDA correlation
   AGGAC   =    1.0000 GGA correlation

 Linear response parameters
   LEPSILON=     F    determine dielectric tensor
   LRPA    =     F    only Hartree local field effects (RPA)
   LNABLA  =     F    use nabla operator in PAW spheres
   LVEL    =     F    velocity operator in full k-point grid
   LINTERFAST=   F  fast interpolation
   KINTER  =     0    interpolate to denser k-point grid
   CSHIFT  =0.1000    complex shift for real part using Kramers Kronig
   OMEGAMAX=  -1.0    maximum frequency

 Orbital magnetization related:
   ORBITALMAG=     F  switch on orbital magnetization
   LCHIMAG   =     F  perturbation theory with respect to B field



--------------------------------------------------------------------------------------------------------


 Static calculation
 charge density and potential will be updated during run
 non-spin polarized calculation
 Conjugate gradient for all bands, subspace preconditioning
 preconditioned conjugated gradient                                        
 perform sub-space diagonalisation
    before iterative eigenvector-optimisation
 modified Broyden-mixing scheme, WC =      100.0
 initial mixing is a Kerker type mixing with AMIX =  0.4000 and BMIX =      1.0000
 Hartree-type preconditioning will be used
 using additional bands           182
 reciprocal scheme for non local part
 use partial core corrections
 no Harris-corrections to forces 
 use gradient corrections 
 use of overlap-Matrix (Vanderbilt PP)
 Gauss-broadening in eV      SIGMA  =   0.01


--------------------------------------------------------------------------------------------------------


  energy-cutoff  :      400.00
  volume of cell :       48.3338
      direct lattice vectors                 reciprocal lattice vectors
     1.630270000 -2.823710458  0.000000000     0.306697664 -0.177071979  0.000000000
     1.630270000  2.823710458  0.000000000     0.306697664  0.177071979  0.000000000
     0.000000000  0.000000000  5.249786324     0.000000000  0.000000000  0.190483943

  length of vectors
     3.260539989  3.260539989  5.249786324     0.354143958  0.354143958  0.190483943



 old parameters found on file WAVECAR:
  energy-cutoff  :      400.00
  volume of cell :       48.3338
      direct lattice vectors                 reciprocal lattice vectors
     1.630270000 -2.823710458  0.000000000     0.306697664 -0.177071979  0.000000000
     1.630270000  2.823710458  0.000000000     0.306697664  0.177071979  0.000000000
     0.000000000  0.000000000  5.249786324     0.000000000  0.000000000  0.190483943

  length of vectors


 k-points in units of 2pi/SCALE and weight: Automatic generation                    
   0.00000000  0.00000000  0.00000000       0.002
   0.10000000 -0.05773503  0.00000000       0.010
   0.20000000 -0.11547005  0.00000000       0.010
   0.30000000 -0.17320508  0.00000000       0.010
   0.40000000 -0.23094011  0.00000000       0.010
   0.50000000 -0.28867514  0.00000000       0.005
   0.20000000  0.00000000  0.00000000       0.010
   0.30000000 -0.05773503  0.00000000       0.020
   0.40000000 -0.11547005  0.00000000       0.020
   0.50000000 -0.17320508  0.00000000       0.020
   0.40000000  0.00000000  0.00000000       0.010
   0.50000000 -0.05773503  0.00000000       0.020
   0.60000000 -0.11547005  0.00000000       0.010
   0.60000000  0.00000000  0.00000000       0.010
   0.00000000  0.00000000  0.10351342       0.003
   0.10000000 -0.05773503  0.10351342       0.020
   0.20000000 -0.11547005  0.10351342       0.020
   0.30000000 -0.17320508  0.10351342       0.020
   0.40000000 -0.23094011  0.10351342       0.020
   0.50000000 -0.28867514  0.10351342       0.010
   0.20000000  0.00000000  0.10351342       0.020
   0.30000000 -0.05773503  0.10351342       0.040
   0.40000000 -0.11547005  0.10351342       0.040
   0.50000000 -0.17320508  0.10351342       0.040
   0.40000000  0.00000000  0.10351342       0.020
   0.50000000 -0.05773503  0.10351342       0.040
   0.60000000 -0.11547005  0.10351342       0.020
   0.60000000  0.00000000  0.10351342       0.020
   0.00000000  0.00000000  0.20702684       0.003
   0.10000000 -0.05773503  0.20702684       0.020
   0.20000000 -0.11547005  0.20702684       0.020
   0.30000000 -0.17320508  0.20702684       0.020
   0.40000000 -0.23094011  0.20702684       0.020
   0.50000000 -0.28867514  0.20702684       0.010
   0.20000000  0.00000000  0.20702684       0.020
   0.30000000 -0.05773503  0.20702684       0.040
   0.40000000 -0.11547005  0.20702684       0.040
   0.50000000 -0.17320508  0.20702684       0.040
   0.40000000  0.00000000  0.20702684       0.020
   0.50000000 -0.05773503  0.20702684       0.040
   0.60000000 -0.11547005  0.20702684       0.020
   0.60000000  0.00000000  0.20702684       0.020
   0.00000000  0.00000000  0.31054026       0.002
   0.10000000 -0.05773503  0.31054026       0.010
   0.20000000 -0.11547005  0.31054026       0.010
   0.30000000 -0.17320508  0.31054026       0.010
   0.40000000 -0.23094011  0.31054026       0.010
   0.50000000 -0.28867514  0.31054026       0.005
   0.20000000  0.00000000  0.31054026       0.010
   0.30000000 -0.05773503  0.31054026       0.020
   0.40000000 -0.11547005  0.31054026       0.020
   0.50000000 -0.17320508  0.31054026       0.020
   0.40000000  0.00000000  0.31054026       0.010
   0.50000000 -0.05773503  0.31054026       0.020
   0.60000000 -0.11547005  0.31054026       0.010
   0.60000000  0.00000000  0.31054026       0.010

 k-points in reciprocal lattice and weights: Automatic generation                    
   0.00000000  0.00000000  0.00000000       0.002
   0.10000000  0.00000000  0.00000000       0.010
   0.20000000  0.00000000  0.00000000       0.010
   0.30000000  0.00000000  0.00000000       0.010
   0.40000000  0.00000000  0.00000000       0.010
   0.50000000  0.00000000  0.00000000       0.005
   0.10000000  0.10000000  0.00000000       0.010
   0.20000000  0.10000000  0.00000000       0.020
   0.30000000  0.10000000  0.00000000       0.020
   0.40000000  0.10000000  0.00000000       0.020
   0.20000000  0.20000000  0.00000000       0.010
   0.30000000  0.20000000  0.00000000       0.020
   0.40000000  0.20000000  0.00000000       0.010
   0.30000000  0.30000000  0.00000000       0.010
   0.00000000  0.00000000  0.16666667       0.003
   0.10000000  0.00000000  0.16666667       0.020
   0.20000000  0.00000000  0.16666667       0.020
   0.30000000  0.00000000  0.16666667       0.020
   0.40000000  0.00000000  0.16666667       0.020
   0.50000000  0.00000000  0.16666667       0.010
   0.10000000  0.10000000  0.16666667       0.020
   0.20000000  0.10000000  0.16666667       0.040
   0.30000000  0.10000000  0.16666667       0.040
   0.40000000  0.10000000  0.16666667       0.040
   0.20000000  0.20000000  0.16666667       0.020
   0.30000000  0.20000000  0.16666667       0.040
   0.40000000  0.20000000  0.16666667       0.020
   0.30000000  0.30000000  0.16666667       0.020
   0.00000000  0.00000000  0.33333333       0.003
   0.10000000  0.00000000  0.33333333       0.020
   0.20000000  0.00000000  0.33333333       0.020
   0.30000000  0.00000000  0.33333333       0.020
   0.40000000  0.00000000  0.33333333       0.020
   0.50000000  0.00000000  0.33333333       0.010
   0.10000000  0.10000000  0.33333333       0.020
   0.20000000  0.10000000  0.33333333       0.040
   0.30000000  0.10000000  0.33333333       0.040
   0.40000000  0.10000000  0.33333333       0.040
   0.20000000  0.20000000  0.33333333       0.020
   0.30000000  0.20000000  0.33333333       0.040
   0.40000000  0.20000000  0.33333333       0.020
   0.30000000  0.30000000  0.33333333       0.020
   0.00000000  0.00000000  0.50000000       0.002
   0.10000000  0.00000000  0.50000000       0.010
   0.20000000  0.00000000  0.50000000       0.010
   0.30000000  0.00000000  0.50000000       0.010
   0.40000000  0.00000000  0.50000000       0.010
   0.50000000  0.00000000  0.50000000       0.005
   0.10000000  0.10000000  0.50000000       0.010
   0.20000000  0.10000000  0.50000000       0.020
   0.30000000  0.10000000  0.50000000       0.020
   0.40000000  0.10000000  0.50000000       0.020
   0.20000000  0.20000000  0.50000000       0.010
   0.30000000  0.20000000  0.50000000       0.020
   0.40000000  0.20000000  0.50000000       0.010
   0.30000000  0.30000000  0.50000000       0.010

 position of ions in fractional coordinates (direct lattice) 
   0.00000000  0.00000000  0.99981500
   0.33333340  0.66666670  0.49981500
   0.33333340  0.66666670  0.87978500
   0.00000000  0.00000000  0.37978500

 position of ions in cartesian coordinates  (Angst):
   0.00000000  0.00000000  5.24881511
   1.63027016  0.94123673  2.62392195
   1.63027016  0.94123673  4.61868326
   0.00000000  0.00000000  1.99379010



--------------------------------------------------------------------------------------------------------


 k-point  1 :  0.00000.00000.0000  plane waves:     881
 k-point  2 :  0.10000.00000.0000  plane waves:     881
 k-point  3 :  0.20000.00000.0000  plane waves:     873
 k-point  4 :  0.30000.00000.0000  plane waves:     871
 k-point  5 :  0.40000.00000.0000  plane waves:     884
 k-point  6 :  0.50000.00000.0000  plane waves:     884
 k-point  7 :  0.10000.10000.0000  plane waves:     885
 k-point  8 :  0.20000.10000.0000  plane waves:     872
 k-point  9 :  0.30000.10000.0000  plane waves:     872
 k-point 10 :  0.40000.10000.0000  plane waves:     882
 k-point 11 :  0.20000.20000.0000  plane waves:     879
 k-point 12 :  0.30000.20000.0000  plane waves:     881
 k-point 13 :  0.40000.20000.0000  plane waves:     880
 k-point 14 :  0.30000.30000.0000  plane waves:     887
 k-point 15 :  0.00000.00000.1667  plane waves:     887
 k-point 16 :  0.10000.00000.1667  plane waves:     882
 k-point 17 :  0.20000.00000.1667  plane waves:     884
 k-point 18 :  0.30000.00000.1667  plane waves:     872
 k-point 19 :  0.40000.00000.1667  plane waves:     879
 k-point 20 :  0.50000.00000.1667  plane waves:     890
 k-point 21 :  0.10000.10000.1667  plane waves:     887
 k-point 22 :  0.20000.10000.1667  plane waves:     875
 k-point 23 :  0.30000.10000.1667  plane waves:     881
 k-point 24 :  0.40000.10000.1667  plane waves:     878
 k-point 25 :  0.20000.20000.1667  plane waves:     880
 k-point 26 :  0.30000.20000.1667  plane waves:     877
 k-point 27 :  0.40000.20000.1667  plane waves:     875
 k-point 28 :  0.30000.30000.1667  plane waves:     875
 k-point 29 :  0.00000.00000.3333  plane waves:     887
 k-point 30 :  0.10000.00000.3333  plane waves:     879
 k-point 31 :  0.20000.00000.3333  plane waves:     880
 k-point 32 :  0.30000.00000.3333  plane waves:     881
 k-point 33 :  0.40000.00000.3333  plane waves:     877
 k-point 34 :  0.50000.00000.3333  plane waves:     878
 k-point 35 :  0.10000.10000.3333  plane waves:     883
 k-point 36 :  0.20000.10000.3333  plane waves:     882
 k-point 37 :  0.30000.10000.3333  plane waves:     876
 k-point 38 :  0.40000.10000.3333  plane waves:     878
 k-point 39 :  0.20000.20000.3333  plane waves:     876
 k-point 40 :  0.30000.20000.3333  plane waves:     873
 k-point 41 :  0.40000.20000.3333  plane waves:     870
 k-point 42 :  0.30000.30000.3333  plane waves:     871
 k-point 43 :  0.00000.00000.5000  plane waves:     882
 k-point 44 :  0.10000.00000.5000  plane waves:     878
 k-point 45 :  0.20000.00000.5000  plane waves:     898
 k-point 46 :  0.30000.00000.5000  plane waves:     886
 k-point 47 :  0.40000.00000.5000  plane waves:     874
 k-point 48 :  0.50000.00000.5000  plane waves:     880
 k-point 49 :  0.10000.10000.5000  plane waves:     880
 k-point 50 :  0.20000.10000.5000  plane waves:     880
 k-point 51 :  0.30000.10000.5000  plane waves:     872
 k-point 52 :  0.40000.10000.5000  plane waves:     874
 k-point 53 :  0.20000.20000.5000  plane waves:     872
 k-point 54 :  0.30000.20000.5000  plane waves:     872
 k-point 55 :  0.40000.20000.5000  plane waves:     872
 k-point 56 :  0.30000.30000.5000  plane waves:     870

 maximum and minimum number of plane-waves per node :     898    870

 maximum number of plane-waves:     898
 maximal index in each direction: 
   IXMAX=  5   IYMAX=  5   IZMAX=  8
   IXMIN= -5   IYMIN= -5   IZMIN= -9

 NGX is ok and might be reduce to  22
 NGY is ok and might be reduce to  22
 NGZ is ok and might be reduce to  36

 serial   3D FFT for wavefunctions
 parallel 3D FFT for charge:
    minimum data exchange during FFTs selected (reduces bandwidth)


 FFT grid for exact exchange (Hartree Fock) 
  NGX = 12; NGY = 12; NGZ = 20


 total amount of memory used by VASP on root node 116950. kBytes
========================================================================

   base      :    30000. kBytes
   nonl-proj :    14637. kBytes
   fftplans  :     3148. kBytes
   grid      :     4345. kBytes
   one-center:       62. kBytes
   HF        :      129. kBytes
   nonlr-proj:      117. kBytes
   wavefun   :    64512. kBytes

 Broyden mixing: mesh for mixing (old mesh)
   NGX = 11   NGY = 11   NGZ = 17
  (NGX  = 48   NGY  = 48   NGZ  = 72)
  gives a total of   2057 points

 charge density for first step will be calculated from the start-wavefunctions


--------------------------------------------------------------------------------------------------------


 Maximum index for augmentation-charges         12283 (set IRDMAX)


--------------------------------------------------------------------------------------------------------


 initial charge from wavefunction
 First call to EWALD:  gamma=   0.487
 Maximum number of real-space cells 3x 3x 2
 Maximum number of reciprocal cells 3x 3x 4

    FEWALD:  cpu time    0.00: real time    0.00
   RESPFUN:  cpu time    0.00: real time    0.01


----------------------------------------- Iteration    1(   1)  ---------------------------------------


    POTLOK:  cpu time    0.24: real time    0.24
    SETDIJ:  cpu time    1.40: real time    1.40

    SUBROT:  cpu time   20.37: real time   20.60
    SUBROT:  cpu time   10.01: real time   10.10
    SUBROT:  cpu time    9.98: real time   10.09
    SUBROT:  cpu time   10.03: real time   10.11
    --------------------------------------------
    SUBRT+:  cpu time   50.39: real time   50.91

 Broyden mixing:
  rms(total) = 0.84801E-03    rms(broyden)= 0.84704E-03
  rms(prec ) = 0.18263E-02
  weight for this iteration     100.00

 eigenvalues of (default mixing * dielectric matrix)
  average eigenvalue GAMMA=   1.5539
  2.5260  1.1759  0.9596

    TRIAL :  cpu time 1170.85: real time 1172.12
    CORREC:  cpu time 1106.37: real time 1106.75
    CHARGE:  cpu time    1.65: real time    1.66
    --------------------------------------------
      LOOP:  cpu time 2280.63: real time 2282.29

 eigenvalue-minimisations  :     0
 total energy-change (2. order) :-0.2710037E+02  (-0.2258058E+00)
 number of electron   36.0000002 magnetization 
 augmentation part    17.6313800 magnetization 

 Free energy of the ion-electron system (eV)
  ---------------------------------------------------
  alpha Z        PSCENC =       230.92633316
  Ewald energy   TEWEN  =     -2947.65590400
  -1/2 Hartree   DENC   =     -1319.37436750
  -exchange  EXHF       =       104.44831906
  -V(xc)+E(xc)   XCENC  =       130.69309933
  PAW double counting   =      3341.65197406    -3674.82418544
  entropy T*S    EENTRO =         0.00000000
  eigenvalues    EBANDS =      -241.97350497
  atomic energy  EATOM  =      4349.00786970
  ---------------------------------------------------
  free energy    TOTEN  =       -27.10036661 eV

  energy without entropy =      -27.10036661  energy(sigma->0) =      -27.10036661


--------------------------------------------------------------------------------------------------------




----------------------------------------- Iteration    1(   2)  ---------------------------------------


    POTLOK:  cpu time    0.23: real time    0.23
    SETDIJ:  cpu time    1.40: real time    1.40

    SUBROT:  cpu time   20.33: real time   20.54
    SUBROT:  cpu time   10.00: real time   10.07
    SUBROT:  cpu time    9.94: real time   10.06
    SUBROT:  cpu time    9.96: real time   10.06
    --------------------------------------------
    SUBRT+:  cpu time   50.24: real time   50.73

 Broyden mixing:
  rms(total) = 0.43243E-03    rms(broyden)= 0.43136E-03
  rms(prec ) = 0.61256E-03
  weight for this iteration     100.00

 eigenvalues of (default mixing * dielectric matrix)
  average eigenvalue GAMMA=   1.5284
  2.4783  0.9221  1.1849

    TRIAL :  cpu time 1175.86: real time 1177.03
    CORREC:  cpu time 1113.17: real time 1113.57
    CHARGE:  cpu time    1.65: real time    1.66
    --------------------------------------------
      LOOP:  cpu time 2292.32: real time 2293.90

 eigenvalue-minimisations  :     0
 total energy-change (2. order) :-0.2237454E+00  (-0.5213777E-02)
 number of electron   36.0000002 magnetization 
 augmentation part    17.6306320 magnetization 

 Free energy of the ion-electron system (eV)
  ---------------------------------------------------
  alpha Z        PSCENC =       230.92633316
  Ewald energy   TEWEN  =     -2947.65590400
  -1/2 Hartree   DENC   =     -1332.50068029
  -exchange  EXHF       =       105.10657053
  -V(xc)+E(xc)   XCENC  =       131.22861632
  PAW double counting   =      3355.54184304    -3692.80276179
  entropy T*S    EENTRO =         0.00000000
  eigenvalues    EBANDS =      -226.17599864
  atomic energy  EATOM  =      4349.00786970
  ---------------------------------------------------
  free energy    TOTEN  =       -27.32411197 eV

  energy without entropy =      -27.32411197  energy(sigma->0) =      -27.32411197


--------------------------------------------------------------------------------------------------------




----------------------------------------- Iteration    1(   3)  ---------------------------------------


    POTLOK:  cpu time    0.23: real time    0.23
    SETDIJ:  cpu time    1.40: real time    1.40

    SUBROT:  cpu time   20.32: real time   20.50
    SUBROT:  cpu time    9.92: real time   10.05
    SUBROT:  cpu time    9.98: real time   10.07
    --------------------------------------------
    SUBRT+:  cpu time   40.22: real time   40.65

 Broyden mixing:
  rms(total) = 0.12267E-02    rms(broyden)= 0.12263E-02
  rms(prec ) = 0.18168E-02
  weight for this iteration     100.00

 eigenvalues of (default mixing * dielectric matrix)
  average eigenvalue GAMMA=   1.7927
  1.1626  2.4227

    TRIAL :  cpu time 1165.11: real time 1166.27
    CORREC:  cpu time 1112.81: real time 1113.21
    CHARGE:  cpu time    1.66: real time    1.66
    --------------------------------------------
      LOOP:  cpu time 2281.22: real time 2282.78

 eigenvalue-minimisations  :     0
 total energy-change (2. order) :-0.4865926E-02  (-0.4609199E-03)
 number of electron   36.0000002 magnetization 
 augmentation part    17.6309015 magnetization 

 Free energy of the ion-electron system (eV)
  ---------------------------------------------------
  alpha Z        PSCENC =       230.92633316
  Ewald energy   TEWEN  =     -2947.65590400
  -1/2 Hartree   DENC   =     -1332.39498165
  -exchange  EXHF       =       105.12918102
  -V(xc)+E(xc)   XCENC  =       131.22348800
  PAW double counting   =      3357.00045718    -3693.71950629
  entropy T*S    EENTRO =         0.00000000
  eigenvalues    EBANDS =      -226.84591500
  atomic energy  EATOM  =      4349.00786970
  ---------------------------------------------------
  free energy    TOTEN  =       -27.32897790 eV

  energy without entropy =      -27.32897790  energy(sigma->0) =      -27.32897790


--------------------------------------------------------------------------------------------------------




----------------------------------------- Iteration    1(   4)  ---------------------------------------


    POTLOK:  cpu time    0.23: real time    0.23
    SETDIJ:  cpu time    1.40: real time    1.40

    SUBROT:  cpu time   20.29: real time   20.53
    SUBROT:  cpu time    9.98: real time   10.06
    --------------------------------------------
    SUBRT+:  cpu time   30.26: real time   30.59

 Broyden mixing:
  rms(total) = 0.58123E-03    rms(broyden)= 0.58042E-03
  rms(prec ) = 0.78510E-03
  weight for this iteration     100.00

 eigenvalues of (default mixing * dielectric matrix)
  average eigenvalue GAMMA=   1.4618
  1.4618

    TRIAL :  cpu time 1153.66: real time 1154.76
    CORREC:  cpu time 1111.29: real time 1111.66
    CHARGE:  cpu time    1.66: real time    1.66
    --------------------------------------------
      LOOP:  cpu time 2268.24: real time 2269.74

 eigenvalue-minimisations  :     0
 total energy-change (2. order) :-0.4792278E-03  (-0.1370657E-03)
 number of electron   36.0000002 magnetization 
 augmentation part    17.6314592 magnetization 

 Free energy of the ion-electron system (eV)
  ---------------------------------------------------
  alpha Z        PSCENC =       230.92633316
  Ewald energy   TEWEN  =     -2947.65590400
  -1/2 Hartree   DENC   =     -1332.54512440
  -exchange  EXHF       =       105.12933523
  -V(xc)+E(xc)   XCENC  =       131.22730344
  PAW double counting   =      3357.61135947    -3694.42382588
  entropy T*S    EENTRO =         0.00000000
  eigenvalues    EBANDS =      -226.60680385
  atomic energy  EATOM  =      4349.00786970
  ---------------------------------------------------
  free energy    TOTEN  =       -27.32945712 eV

  energy without entropy =      -27.32945712  energy(sigma->0) =      -27.32945712


--------------------------------------------------------------------------------------------------------




----------------------------------------- Iteration    1(   5)  ---------------------------------------


    POTLOK:  cpu time    0.24: real time    0.23
    SETDIJ:  cpu time    1.40: real time    1.40

    SUBROT:  cpu time   20.37: real time   20.56
    SUBROT:  cpu time   10.14: real time   10.27
    --------------------------------------------
    SUBRT+:  cpu time   30.51: real time   30.84

 Broyden mixing:
  rms(total) = 0.13145E-03    rms(broyden)= 0.12808E-03
  rms(prec ) = 0.18562E-03
  weight for this iteration     100.00

 eigenvalues of (default mixing * dielectric matrix)
  average eigenvalue GAMMA=   1.1128
  1.1128

    TRIAL :  cpu time 1152.93: real time 1153.91
    CORREC:  cpu time 1113.43: real time 1113.83
    CHARGE:  cpu time    1.65: real time    1.65
    --------------------------------------------
      LOOP:  cpu time 2269.64: real time 2271.03

 eigenvalue-minimisations  :     0
 total energy-change (2. order) :-0.1333112E-03  (-0.7624742E-05)
 number of electron   36.0000002 magnetization 
 augmentation part    17.6313660 magnetization 

 Free energy of the ion-electron system (eV)
  ---------------------------------------------------
  alpha Z        PSCENC =       230.92633316
  Ewald energy   TEWEN  =     -2947.65590400
  -1/2 Hartree   DENC   =     -1332.63150350
  -exchange  EXHF       =       105.12779737
  -V(xc)+E(xc)   XCENC  =       131.23003597
  PAW double counting   =      3357.68363500    -3694.60470305
  entropy T*S    EENTRO =         0.00000000
  eigenvalues    EBANDS =      -226.41315108
  atomic energy  EATOM  =      4349.00786970
  ---------------------------------------------------
  free energy    TOTEN  =       -27.32959043 eV

  energy without entropy =      -27.32959043  energy(sigma->0) =      -27.32959043


--------------------------------------------------------------------------------------------------------




----------------------------------------- Iteration    1(   6)  ---------------------------------------


    POTLOK:  cpu time    0.23: real time    0.23
    SETDIJ:  cpu time    1.40: real time    1.40

    SUBROT:  cpu time   20.29: real time   20.55
    SUBROT:  cpu time    9.95: real time   10.04
    --------------------------------------------
    SUBRT+:  cpu time   30.23: real time   30.59

 Broyden mixing:
  rms(total) = 0.65533E-04    rms(broyden)= 0.58557E-04
  rms(prec ) = 0.77769E-04
  weight for this iteration     100.00
  WARNING: grid for Broyden might be too small

 eigenvalues of (default mixing * dielectric matrix)
  average eigenvalue GAMMA=   2.0013
  2.0013

    TRIAL :  cpu time 1157.14: real time 1158.23
    CORREC:  cpu time 1110.84: real time 1111.19
    CHARGE:  cpu time    1.66: real time    1.66
    --------------------------------------------
      LOOP:  cpu time 2271.27: real time 2272.74

 eigenvalue-minimisations  :     0
 total energy-change (2. order) :-0.7735148E-05  (-0.2037086E-05)
 number of electron   36.0000002 magnetization 
 augmentation part    17.6312619 magnetization 

 Free energy of the ion-electron system (eV)
  ---------------------------------------------------
  alpha Z        PSCENC =       230.92633316
  Ewald energy   TEWEN  =     -2947.65590400
  -1/2 Hartree   DENC   =     -1332.62932025
  -exchange  EXHF       =       105.12709116
  -V(xc)+E(xc)   XCENC  =       131.22986199
  PAW double counting   =      3357.69968794    -3694.62666172
  entropy T*S    EENTRO =         0.00000000
  eigenvalues    EBANDS =      -226.40855614
  atomic energy  EATOM  =      4349.00786970
  ---------------------------------------------------
  free energy    TOTEN  =       -27.32959817 eV

  energy without entropy =      -27.32959817  energy(sigma->0) =      -27.32959817


--------------------------------------------------------------------------------------------------------


  average scaling for gradient   1.3175


 average (electrostatic) potential at core
  the test charge radii are     0.9521  0.7215
  (the norm of the test charge is              1.0000)
      1  -26.1944      2  -26.1944      3  -66.0893      4  -66.0893



 E-fermi :   0.2764     XC(G=0):  -8.8406     alpha+bet : -7.7958
   add alpha+bet to get absolut eigen values

 k-point   1 :       0.0000    0.0000    0.0000
  band No.  band energies     occupation 
      1     -19.5640      2.00000
      2     -18.8440      2.00000
      3      -6.7710      2.00000
      4      -6.7713      2.00000
      5      -6.7265      2.00000
      6      -5.9941      2.00000
      7      -6.5830      2.00000
      8      -6.5832      2.00000
      9      -5.7616      2.00000
     10      -5.7612      2.00000
     11      -5.5695      2.00000
     12      -5.5690      2.00000
     13      -5.1004      2.00000
     14      -1.0221      2.00000
     15      -1.0226      2.00000
     16      -0.2663      2.00000
     17      -0.1956      2.00000
     18      -0.1962      2.00000
     19       2.2856      0.00000
     20       6.9866      0.00000
     21      10.0575      0.00000
     22      14.7653      0.00000
     23      14.7653      0.00000
     24      15.9240      0.00000
     25      16.1533      0.00000
     26      16.1532      0.00000
     27      18.2858      0.00000
     28      20.0175      0.00000
     29      20.0175      0.00000
     30      21.7118      0.00000
     31      21.6519      0.00000
     32      21.6519      0.00000
     33      23.2249      0.00000
     34      25.0344      0.00000
     35      27.1378      0.00000
     36      27.1376      0.00000
     37      29.5943      0.00000
     38      30.9053      0.00000
     39      30.9050      0.00000
     40      31.0589      0.00000
     41      33.3578      0.00000
     42      33.3578      0.00000
     43      36.5594      0.00000
     44      36.5594      0.00000
     45      36.9687      0.00000
     46      39.1345      0.00000
     47      39.1343      0.00000
     48      42.1806      0.00000
     49      42.1803      0.00000
     50      43.1403      0.00000
     51      44.5029      0.00000
     52      47.0915      0.00000
     53      49.5756      0.00000
     54      50.8778      0.00000
     55      50.8778      0.00000
     56      52.4192      0.00000
     57      52.5808      0.00000
     58      53.0438      0.00000
     59      53.6247      0.00000
     60      53.6248      0.00000
     61      55.4380      0.00000
     62      55.4380      0.00000
     63      57.1371      0.00000
     64      58.1609      0.00000
     65      57.8636      0.00000
     66      58.2990      0.00000
     67      58.2990      0.00000
     68      58.5085      0.00000
     69      58.5085      0.00000
     70      59.9009      0.00000
     71      59.9009      0.00000
     72      62.0427      0.00000
     73      62.4832      0.00000
     74      62.4832      0.00000
     75      63.5526      0.00000
     76      63.5526      0.00000
     77      65.7771      0.00000
     78      65.7769      0.00000
     79      65.5223      0.00000
     80      66.8718      0.00000
     81      67.3530      0.00000
     82      67.3531      0.00000
     83      69.7474      0.00000
     84      69.7474      0.00000
     85      70.1028      0.00000
     86      70.1028      0.00000
     87      70.3371      0.00000
     88      71.5855      0.00000
     89      71.8272      0.00000
     90      72.2607      0.00000
     91      72.6383      0.00000
     92      72.5704      0.00000
     93      72.9626      0.00000
     94      72.9626      0.00000
     95      73.4806      0.00000
     96      73.4806      0.00000
     97      73.6685      0.00000
     98      73.6685      0.00000
     99      75.0815      0.00000
    100      75.7724      0.00000
    101      78.6372      0.00000
    102      78.6372      0.00000
    103      79.1564      0.00000
    104      79.1565      0.00000
    105      79.8962      0.00000
    106      79.8961      0.00000
    107      80.4123      0.00000
    108      81.4810      0.00000
    109      83.1498      0.00000
    110      83.1499      0.00000
    111      83.2157      0.00000
    112      88.9330      0.00000
    113      88.0715      0.00000
    114      88.0715      0.00000
    115      89.1476      0.00000
    116      89.1478      0.00000
    117      90.0821      0.00000
    118      90.3980      0.00000
    119      92.0587      0.00000
    120      93.2421      0.00000
    121      93.2427      0.00000
    122      94.6030      0.00000
    123      96.1658      0.00000
    124      96.2126      0.00000
    125      96.2994      0.00000
    126      97.2655      0.00000
    127      97.4210      0.00000
    128      97.5090      0.00000
    129     108.4051      0.00000
    130     109.4039      0.00000
    131     132.0783      0.00000
    132     114.3766      0.00000
    133     107.9593      0.00000
    134     109.0351      0.00000
    135     117.9983      0.00000
    136     196.3885      0.00000
    137     109.1098      0.00000
    138     124.0488      0.00000
    139     104.4697      0.00000
    140     133.8870      0.00000
    141     126.6396      0.00000
    142     113.8802      0.00000
    143     112.9550      0.00000
    144     127.1068      0.00000
    145     110.9806      0.00000
    146     165.6929      0.00000
    147     167.6714      0.00000
    148     116.5173      0.00000
    149     141.7060      0.00000
    150     123.0805      0.00000
    151     119.0686      0.00000
    152     137.5246      0.00000
    153     151.8307      0.00000
    154     122.8733      0.00000
    155     148.7965      0.00000
    156     138.1239      0.00000
    157     143.4059      0.00000
    158     127.6402      0.00000
    159     147.5941      0.00000
    160     121.6216      0.00000
    161     171.8981      0.00000
    162     169.5053      0.00000
    163     158.9543      0.00000
    164     129.2000      0.00000
    165     187.6311      0.00000
    166     149.8559      0.00000
    167     205.6412      0.00000
    168     196.7636      0.00000
    169     161.1097      0.00000
    170     133.3330      0.00000
    171     184.0867      0.00000
    172     164.3440      0.00000
    173     161.5281      0.00000
    174     139.5301      0.00000
    175     139.1349      0.00000
    176     145.0187      0.00000
    177     155.0385      0.00000
    178     173.3009      0.00000
    179     169.8205      0.00000
    180     186.4015      0.00000
    181     198.3875      0.00000
    182     181.7534      0.00000
    183     166.9998      0.00000
    184     147.3624      0.00000
    185     141.2136      0.00000
    186     188.7131      0.00000
    187     153.1002      0.00000
    188     149.8100      0.00000
    189     171.4151      0.00000
    190     181.7355      0.00000
    191     166.4748      0.00000
    192     145.2930      0.00000
    193     159.7242      0.00000
    194     191.6827      0.00000
    195     201.7214      0.00000
    196     147.0505      0.00000
    197     184.0841      0.00000
    198     179.1165      0.00000
    199     211.0597      0.00000
    200     204.5814      0.00000

 k-point   2 :       0.1000    0.0000    0.0000
  band No.  band energies     occupation 
      1     -19.5077      2.00000
      2     -18.8208      2.00000
      3      -6.8012      2.00000
      4      -6.7389      2.00000
      5      -6.6902      2.00000
      6      -6.5750      2.00000
      7      -6.0005      2.00000
      8      -6.5381      2.00000
      9      -5.7818      2.00000
     10      -5.7645      2.00000
     11      -5.5644      2.00000
     12      -5.4680      2.00000
     13      -5.0752      2.00000
     14      -1.4047      2.00000
     15      -1.1672      2.00000
     16      -0.7152      2.00000
     17      -0.3348      2.00000
     18      -0.2687      2.00000
     19       2.9132      0.00000
     20       7.4194      0.00000
     21      10.0295      0.00000
     22      13.7055      0.00000
     23      14.8881      0.00000
     24      15.3714      0.00000
     25      16.1306      0.00000
     26      16.2952      0.00000
     27      17.7847      0.00000
     28      19.3188      0.00000
     29      20.1408      0.00000
     30      21.8576      0.00000
     31      23.0791      0.00000
     32      22.9482      0.00000
     33      23.9301      0.00000
     34      25.9631      0.00000
     35      26.5059      0.00000
     36      27.2063      0.00000
     37      30.1917      0.00000
     38      30.6846      0.00000
     39      30.9410      0.00000
     40      30.9709      0.00000
     41      32.5956      0.00000
     42      32.9242      0.00000
     43      36.1519      0.00000
     44      37.6742      0.00000
     45      37.6914      0.00000
     46      38.9625      0.00000
     47      39.8576      0.00000
     48      41.7126      0.00000
     49      42.1386      0.00000
     50      43.4589      0.00000
     51      44.9307      0.00000
     52      46.1242      0.00000
     53      47.3846      0.00000
     54      49.7822      0.00000
     55      50.2658      0.00000
     56      51.7066      0.00000
     57      52.0146      0.00000
     58      52.2956      0.00000
     59      53.8157      0.00000
     60      53.7924      0.00000
     61      55.3650      0.00000
     62      56.0927      0.00000
     63      56.3408      0.00000
     64      56.9372      0.00000
     65      57.3504      0.00000
     66      58.1589      0.00000
     67      59.2507      0.00000
     68      59.3825      0.00000
     69      59.7291      0.00000
     70      60.2730      0.00000
     71      61.5121      0.00000
     72      62.8887      0.00000
     73      62.7637      0.00000
     74      62.9227      0.00000
[...]


 writing wavefunctions
     LOOP+:  cpu time15233.56: real time15243.14


--------------------------------------------------------------------------------------------------------



 plasma frequency squared (from intraband transitions)
  --------------------------------------------------------------------------------------
       0.000       0.000       0.000
       0.000       0.000       0.000
       0.000       0.000       0.000

 plasma frequency squared (from interband transitions, int dw w eps(2)(w)
  --------------------------------------------------------------------------------------
     740.756       0.000       0.000
       0.000     740.756       0.000
       0.000       0.000     740.733
  --------------------------------------------------------------------------------------
 plasma frequency squared  (valence only):    1027.009

  frequency dependent IMAGINARY DIELECTRIC FUNCTION (RPA, no local field effects)
     E(ev)      X         Y         Z        XY        YZ        ZX
  --------------------------------------------------------------------------------------
    0.000000    0.000000    0.000000    0.000000    0.000000    0.000000    0.000000
    2.808923    0.000000    0.000000    0.000000    0.000000    0.000000    0.000000
    5.617847    0.968139    0.968139    0.535101    0.000000    0.000000    0.000000
    8.426770    1.405209    1.405209    0.894863    0.000000    0.000000    0.000000
   11.235693    1.697232    1.697232    1.770464    0.000000    0.000000    0.000000
   14.044617    3.031053    3.031053    4.191390    0.000000    0.000000    0.000000
   16.853540    2.158783    2.158783    2.707835    0.000000    0.000000    0.000000
   19.662463    0.713930    0.713930    0.767407    0.000000    0.000000    0.000000
   22.471387    0.355378    0.355378    0.425974    0.000000    0.000000    0.000000
   25.280310    0.445933    0.445933    0.439758    0.000000    0.000000    0.000000
   28.089233    0.342921    0.342921    0.434894    0.000000    0.000000    0.000000
   30.898157    0.475279    0.475279    0.447189    0.000000    0.000000    0.000000
   33.707080    0.565996    0.565996    0.636282    0.000000    0.000000    0.000000
   36.516004    0.340586    0.340586    0.411836    0.000000    0.000000    0.000000
   39.324927    0.230047    0.230047    0.237119    0.000000    0.000000    0.000000
   42.133850    0.201545    0.201545    0.211294    0.000000    0.000000    0.000000
   44.942774    0.210589    0.210589    0.206980    0.000000    0.000000    0.000000
   47.751697    0.206173    0.206173    0.175985    0.000000    0.000000    0.000000
   50.560620    0.204692    0.204692    0.237151    0.000000    0.000000    0.000000
   53.369544    0.195732    0.195732    0.198357    0.000000    0.000000    0.000000
   56.178467    0.202963    0.202963    0.154520    0.000000    0.000000    0.000000
   58.987390    0.175574    0.175574    0.190018    0.000000    0.000000    0.000000
   61.796314    0.151800    0.151800    0.202295    0.000000    0.000000    0.000000
   64.605237    0.119874    0.119874    0.125381    0.000000    0.000000    0.000000
   67.414160    0.097830    0.097830    0.104913    0.000000    0.000000    0.000000
   70.223084    0.071658    0.071658    0.068652    0.000000    0.000000    0.000000
   73.032007    0.068518    0.068518    0.067225    0.000000    0.000000    0.000000
   75.840930    0.065797    0.065797    0.087671    0.000000    0.000000    0.000000
   78.649854    0.063351    0.063351    0.070397    0.000000    0.000000    0.000000
   81.458777    0.066488    0.066488    0.072454    0.000000    0.000000    0.000000
   84.267700    0.056960    0.056960    0.049351    0.000000    0.000000    0.000000
   87.076624    0.049150    0.049150    0.048596    0.000000    0.000000    0.000000
   89.885547    0.049190    0.049190    0.046178    0.000000    0.000000    0.000000
   92.694471    0.037561    0.037561    0.040512    0.000000    0.000000    0.000000
   95.503394    0.036780    0.036780    0.043998    0.000000    0.000000    0.000000
   98.312317    0.036558    0.036558    0.038386    0.000000    0.000000    0.000000
  101.121241    0.033752    0.033752    0.027393    0.000000    0.000000    0.000000
  103.930164    0.017549    0.017549    0.015480    0.000000    0.000000    0.000000
  106.739087    0.002320    0.002320    0.003413    0.000000    0.000000    0.000000
  109.548011    0.002120    0.002120    0.002072    0.000000    0.000000    0.000000
  112.356934    0.005182    0.005182    0.004823    0.000000    0.000000    0.000000
  115.165857    0.007742    0.007742    0.007804    0.000000    0.000000    0.000000
  117.974781    0.007997    0.007997    0.006990    0.000000    0.000000    0.000000
  120.783704    0.007759    0.007759    0.007748    0.000000    0.000000    0.000000
  123.592627    0.008775    0.008775    0.007068    0.000000    0.000000    0.000000
  126.401551    0.008929    0.008929    0.009095    0.000000    0.000000    0.000000
  129.210474    0.009354    0.009354    0.009169    0.000000    0.000000    0.000000
  132.019397    0.007247    0.007247    0.007138    0.000000    0.000000    0.000000
  134.828321    0.007713    0.007713    0.006690    0.000000    0.000000    0.000000
  137.637244    0.007040    0.007040    0.006407    0.000000    0.000000    0.000000
  140.446167    0.007170    0.007170    0.006963    0.000000    0.000000    0.000000
  143.255091    0.006189    0.006189    0.006402    0.000000    0.000000    0.000000
  146.064014    0.005841    0.005841    0.005566    0.000000    0.000000    0.000000
  148.872937    0.004894    0.004894    0.003938    0.000000    0.000000    0.000000
  151.681861    0.006612    0.006612    0.005951    0.000000    0.000000    0.000000
  154.490784    0.004650    0.004650    0.004779    0.000000    0.000000    0.000000
  157.299708    0.004025    0.004025    0.004964    0.000000    0.000000    0.000000
  160.108631    0.003204    0.003204    0.003281    0.000000    0.000000    0.000000
  162.917554    0.003389    0.003389    0.002997    0.000000    0.000000    0.000000
  165.726478    0.003604    0.003604    0.003766    0.000000    0.000000    0.000000
  168.535401    0.002629    0.002629    0.002900    0.000000    0.000000    0.000000
  171.344324    0.002171    0.002171    0.002280    0.000000    0.000000    0.000000
  174.153248    0.002050    0.002050    0.002001    0.000000    0.000000    0.000000
  176.962171    0.002075    0.002075    0.001861    0.000000    0.000000    0.000000
  179.771094    0.001996    0.001996    0.001943    0.000000    0.000000    0.000000
  182.580018    0.001472    0.001472    0.001578    0.000000    0.000000    0.000000
  185.388941    0.001635    0.001635    0.001674    0.000000    0.000000    0.000000
  188.197864    0.001400    0.001400    0.001497    0.000000    0.000000    0.000000
  191.006788    0.001598    0.001598    0.001879    0.000000    0.000000    0.000000
  193.815711    0.000916    0.000916    0.001089    0.000000    0.000000    0.000000
  196.624634    0.001341    0.001341    0.001104    0.000000    0.000000    0.000000
  199.433558    0.001324    0.001324    0.001483    0.000000    0.000000    0.000000
  202.242481    0.000887    0.000887    0.000750    0.000000    0.000000    0.000000
  205.051404    0.001011    0.001011    0.000826    0.000000    0.000000    0.000000
  207.860328    0.000805    0.000805    0.000813    0.000000    0.000000    0.000000
  210.669251    0.000529    0.000529    0.000612    0.000000    0.000000    0.000000
  213.478175    0.000496    0.000496    0.000527    0.000000    0.000000    0.000000
  216.287098    0.000245    0.000245    0.000347    0.000000    0.000000    0.000000
  219.096021    0.000145    0.000145    0.000060    0.000000    0.000000    0.000000
  221.904945    0.000077    0.000077    0.000139    0.000000    0.000000    0.000000
  224.713868    0.000194    0.000194    0.000161    0.000000    0.000000    0.000000
  227.522791    0.000043    0.000043    0.000021    0.000000    0.000000    0.000000
  230.331715    0.000022    0.000022    0.000020    0.000000    0.000000    0.000000
  233.140638    0.000018    0.000018    0.000019    0.000000    0.000000    0.000000
  235.949561    0.000000    0.000000    0.000000    0.000000    0.000000    0.000000
  238.758485    0.000000    0.000000    0.000000    0.000000    0.000000    0.000000
  241.567408    0.000000    0.000000    0.000000    0.000000    0.000000    0.000000
  244.376331    0.000000    0.000000    0.000000    0.000000    0.000000    0.000000
  247.185255    0.000000    0.000000    0.000000    0.000000    0.000000    0.000000
  249.994178    0.000000    0.000000    0.000000    0.000000    0.000000    0.000000
  252.803101    0.000000    0.000000    0.000000    0.000000    0.000000    0.000000
  255.612025    0.000000    0.000000    0.000000    0.000000    0.000000    0.000000
  258.420948    0.000000    0.000000    0.000000    0.000000    0.000000    0.000000
  261.229871    0.000000    0.000000    0.000000    0.000000    0.000000    0.000000
  264.038795    0.000000    0.000000    0.000000    0.000000    0.000000    0.000000
  266.847718    0.000000    0.000000    0.000000    0.000000    0.000000    0.000000
  269.656641    0.000000    0.000000    0.000000    0.000000    0.000000    0.000000
  272.465565    0.000000    0.000000    0.000000    0.000000    0.000000    0.000000
  275.274488    0.000000    0.000000    0.000000    0.000000    0.000000    0.000000
  278.083412    0.000000    0.000000    0.000000    0.000000    0.000000    0.000000

  frequency dependent      REAL DIELECTRIC FUNCTION (RPA, no local field effects)
     E(ev)      X         Y         Z        XY        YZ        ZX
  --------------------------------------------------------------------------------------
    0.000000    3.417476    3.417476    3.454074    0.000000    0.000000    0.000000
    2.808923    4.022136    4.022136    3.883590    0.000000    0.000000    0.000000
    5.617847    3.847275    3.847275    4.080378    0.000000    0.000000    0.000000
    8.426770    3.531518    3.531518    3.828680    0.000000    0.000000    0.000000
   11.235693    3.018893    3.018893    2.324838    0.000000    0.000000    0.000000
   14.044617    1.410802    1.410802    2.292398    0.000000    0.000000    0.000000
   16.853540   -0.668257   -0.668256   -0.833010    0.000000    0.000000    0.000000
   19.662463    0.129927    0.129927    0.099289    0.000000    0.000000    0.000000
   22.471387    0.363820    0.363820    0.256769    0.000000    0.000000    0.000000
   25.280310    0.580539    0.580539    0.617673    0.000000    0.000000    0.000000
   28.089233    0.766388    0.766388    0.818331    0.000000    0.000000    0.000000
   30.898157    0.789720    0.789720    0.786432    0.000000    0.000000    0.000000
   33.707080    0.855544    0.855544    0.847746    0.000000    0.000000    0.000000
   36.516004    0.625279    0.625279    0.582351    0.000000    0.000000    0.000000
   39.324927    0.697575    0.697575    0.696446    0.000000    0.000000    0.000000
   42.133850    0.772689    0.772689    0.780632    0.000000    0.000000    0.000000
   44.942774    0.800833    0.800833    0.802784    0.000000    0.000000    0.000000
   47.751697    0.827509    0.827509    0.867130    0.000000    0.000000    0.000000
   50.560620    0.819244    0.819244    0.788614    0.000000    0.000000    0.000000
   53.369544    0.843281    0.843281    0.818125    0.000000    0.000000    0.000000
   56.178467    0.818642    0.818642    0.842274    0.000000    0.000000    0.000000
   58.987390    0.838755    0.838755    0.845689    0.000000    0.000000    0.000000
   61.796314    0.812680    0.812680    0.818220    0.000000    0.000000    0.000000
   64.605237    0.816321    0.816321    0.811809    0.000000    0.000000    0.000000
   67.414160    0.826814    0.826814    0.822843    0.000000    0.000000    0.000000
   70.223084    0.858326    0.858326    0.861081    0.000000    0.000000    0.000000
   73.032007    0.858254    0.858254    0.864935    0.000000    0.000000    0.000000
   75.840930    0.867995    0.867995    0.871729    0.000000    0.000000    0.000000
   78.649854    0.873194    0.873194    0.876103    0.000000    0.000000    0.000000
   81.458777    0.880660    0.880660    0.879304    0.000000    0.000000    0.000000
   84.267700    0.880173    0.880173    0.880452    0.000000    0.000000    0.000000
   87.076624    0.890070    0.890070    0.890085    0.000000    0.000000    0.000000
   89.885547    0.889570    0.889570    0.893667    0.000000    0.000000    0.000000
   92.694471    0.896510    0.896510    0.894922    0.000000    0.000000    0.000000
   95.503394    0.899571    0.899571    0.901025    0.000000    0.000000    0.000000
   98.312317    0.897551    0.897551    0.898977    0.000000    0.000000    0.000000
  101.121241    0.899156    0.899156    0.898344    0.000000    0.000000    0.000000
  103.930164    0.896162    0.896162    0.895680    0.000000    0.000000    0.000000
  106.739087    0.914242    0.914242    0.914436    0.000000    0.000000    0.000000
  109.548011    0.925400    0.925400    0.925005    0.000000    0.000000    0.000000
  112.356934    0.933148    0.933148    0.933392    0.000000    0.000000    0.000000
  115.165857    0.937406    0.937406    0.937321    0.000000    0.000000    0.000000
  117.974781    0.942926    0.942926    0.942483    0.000000    0.000000    0.000000
  120.783704    0.945628    0.945628    0.945627    0.000000    0.000000    0.000000
  123.592627    0.948358    0.948358    0.948562    0.000000    0.000000    0.000000
  126.401551    0.948890    0.948890    0.948992    0.000000    0.000000    0.000000
  129.210474    0.950349    0.950349    0.949950    0.000000    0.000000    0.000000
  132.019397    0.952524    0.952524    0.952709    0.000000    0.000000    0.000000
  134.828321    0.954030    0.954030    0.954635    0.000000    0.000000    0.000000
  137.637244    0.955444    0.955444    0.955122    0.000000    0.000000    0.000000
  140.446167    0.956847    0.956847    0.957140    0.000000    0.000000    0.000000
  143.255091    0.958172    0.958172    0.958465    0.000000    0.000000    0.000000
  146.064014    0.959995    0.959995    0.960642    0.000000    0.000000    0.000000
  148.872937    0.961929    0.961929    0.962123    0.000000    0.000000    0.000000
  151.681861    0.963130    0.963130    0.963366    0.000000    0.000000    0.000000
  154.490784    0.964083    0.964083    0.964366    0.000000    0.000000    0.000000
  157.299708    0.965577    0.965577    0.965515    0.000000    0.000000    0.000000
  160.108631    0.966945    0.966945    0.966726    0.000000    0.000000    0.000000
  162.917554    0.967890    0.967890    0.967924    0.000000    0.000000    0.000000
  165.726478    0.968803    0.968803    0.968822    0.000000    0.000000    0.000000
  168.535401    0.970103    0.970103    0.970022    0.000000    0.000000    0.000000
  171.344324    0.971283    0.971283    0.971288    0.000000    0.000000    0.000000
  174.153248    0.972446    0.972446    0.972390    0.000000    0.000000    0.000000
  176.962171    0.972974    0.972974    0.972995    0.000000    0.000000    0.000000
  179.771094    0.973719    0.973719    0.973656    0.000000    0.000000    0.000000
  182.580018    0.974886    0.974886    0.975030    0.000000    0.000000    0.000000
  185.388941    0.975579    0.975579    0.975650    0.000000    0.000000    0.000000
  188.197864    0.976399    0.976399    0.976475    0.000000    0.000000    0.000000
  191.006788    0.977237    0.977237    0.977194    0.000000    0.000000    0.000000
  193.815711    0.977821    0.977821    0.977703    0.000000    0.000000    0.000000
  196.624634    0.978424    0.978424    0.978491    0.000000    0.000000    0.000000
  199.433558    0.978864    0.978864    0.978848    0.000000    0.000000    0.000000
  202.242481    0.979527    0.979527    0.979540    0.000000    0.000000    0.000000
  205.051404    0.980074    0.980074    0.980115    0.000000    0.000000    0.000000
  207.860328    0.980649    0.980649    0.980659    0.000000    0.000000    0.000000
  210.669251    0.981195    0.981195    0.981194    0.000000    0.000000    0.000000
  213.478175    0.981566    0.981566    0.981645    0.000000    0.000000    0.000000
  216.287098    0.982138    0.982138    0.982069    0.000000    0.000000    0.000000
  219.096021    0.982697    0.982697    0.982671    0.000000    0.000000    0.000000
  221.904945    0.983258    0.983258    0.983270    0.000000    0.000000    0.000000
  224.713868    0.983776    0.983776    0.983755    0.000000    0.000000    0.000000
  227.522791    0.984248    0.984248    0.984272    0.000000    0.000000    0.000000
  230.331715    0.984700    0.984700    0.984696    0.000000    0.000000    0.000000
  233.140638    0.985132    0.985132    0.985136    0.000000    0.000000    0.000000
  235.949561    0.985553    0.985553    0.985555    0.000000    0.000000    0.000000
  238.758485    0.985942    0.985942    0.985944    0.000000    0.000000    0.000000
  241.567408    0.986311    0.986311    0.986313    0.000000    0.000000    0.000000
  244.376331    0.986662    0.986662    0.986664    0.000000    0.000000    0.000000
  247.185255    0.986998    0.986998    0.986999    0.000000    0.000000    0.000000
  249.994178    0.987319    0.987319    0.987320    0.000000    0.000000    0.000000
  252.803101    0.987627    0.987627    0.987628    0.000000    0.000000    0.000000
  255.612025    0.987923    0.987923    0.987924    0.000000    0.000000    0.000000
  258.420948    0.988207    0.988207    0.988208    0.000000    0.000000    0.000000
  261.229871    0.988480    0.988480    0.988481    0.000000    0.000000    0.000000
  264.038795    0.988744    0.988744    0.988745    0.000000    0.000000    0.000000
  266.847718    0.988998    0.988998    0.988998    0.000000    0.000000    0.000000
  269.656641    0.989242    0.989242    0.989243    0.000000    0.000000    0.000000
  272.465565    0.989479    0.989479    0.989479    0.000000    0.000000    0.000000
  275.274488    0.989707    0.989707    0.989708    0.000000    0.000000    0.000000
  278.083412    0.989927    0.989927    0.989928    0.000000    0.000000    0.000000

 The outermost node in the RPA dielectric function lies at epsilon=  19.7


--------------------------------------------------------------------------------------------------------


    4ORBIT:  cpu time    0.00: real time    0.00



 total charge     

# of ion     s       p       d       tot
----------------------------------------
  1        0.416   0.468   9.931  10.816
  2        0.418   0.468   9.931  10.817
  3        1.573   3.505   0.000   5.078
  4        1.573   3.504   0.000   5.078
------------------------------------------------
tot        3.981   7.946  19.862  31.789


 total amount of memory used by VASP on root node 117343. kBytes
========================================================================

   base      :    30000. kBytes
   nonl-proj :    14637. kBytes
   fftplans  :     3148. kBytes
   grid      :     4345. kBytes
   one-center:       62. kBytes
   HF        :      129. kBytes
   nonlr-proj:      510. kBytes
   wavefun   :    64512. kBytes

  
  
 General timing and accounting informations for this job:
 ========================================================
  
                  Total CPU time used (sec):    16740.090
                            User time (sec):    16672.002
                          System time (sec):       68.088
                         Elapsed time (sec):    16750.757
  
                   Maximum memory used (kb):           0.
                   Average memory used (kb):           0.
  
                          Minor page faults:      8203433
                          Major page faults:            0
                 Voluntary context switches:         1828
