 vasp.5.2.2 15Apr09 complex 
 executed on             LinuxPgi date 2010.01.02  01:16:32
 running on    8 nodes
 distr:  one band on    4 nodes,    2 groups


--------------------------------------------------------------------------------------------------------


 INCAR:
 POTCAR:   PAW_PBE Sn_d 06Sep2000                 
 POTCAR:   PAW_PBE O 08Apr2002                    
 POTCAR:   PAW_PBE Sn_d 06Sep2000                 
   VRHFIN =Sn: s2p2                                                             
   LEXCH  = PE                                                                  
   EATOM  =  1893.0782 eV,  139.1373 Ry                                         
                                                                                
   TITEL  = PAW_PBE Sn_d 06Sep2000                                              
   LULTRA =        F    use ultrasoft PP ?                                      
   IUNSCR =        1    unscreen: 0-lin 1-nonlin 2-no                           
   RPACOR =    2.300    partial core radius                                     
   POMASS =  118.710; ZVAL   =   14.000    mass and valenz                      
   RCORE  =    2.500    outmost cutoff radius                                   
   RWIGS  =    2.960; RWIGS  =    1.566    wigner-seitz radius (au A)           
   ENMAX  =  241.090; ENMIN  =  180.817 eV                                      
   ICORE  =        3    local potential                                         
   LCOR   =        T    correct aug charges                                     
   LPAW   =        T    paw PP                                                  
   EAUG   =  439.825                                                            
   DEXC   =    -.001                                                            
   RMAX   =    2.969    core radius for proj-oper                               
   RAUG   =    1.300    factor for augmentation sphere                          
   RDEP   =    2.659    radius for radial grids                                 
   QCUT   =   -4.209; QGAM   =    8.419    optimization parameters              
                                                                                
   Description                                                                  
     l     E      TYP  RCUT    TYP  RCUT                                        
     2   .000     23  2.500                                                     
     2  -.400     23  2.500                                                     
     0   .000     23  2.500                                                     
     0  1.000     23  2.500                                                     
     1   .000     23  2.500                                                     
     1   .000     23  2.500                                                     
     3  -.100      7  2.500                                                     
  local pseudopotential read in
  partial core-charges read in
  atomic valenz-charges read in
  non local Contribution for L=            2  read in
    real space projection operators read in
  non local Contribution for L=            2  read in
    real space projection operators read in
  non local Contribution for L=            0  read in
    real space projection operators read in
  non local Contribution for L=            0  read in
    real space projection operators read in
  non local Contribution for L=            1  read in
    real space projection operators read in
  non local Contribution for L=            1  read in
    real space projection operators read in
    PAW grid and wavefunctions read in

   number of l-projection  operators is LMAX  =            6
   number of lm-projection operators is LMMAX =           18

 POTCAR:   PAW_PBE O 08Apr2002                    
   VRHFIN =O: s2p4                                                              
   LEXCH  = PE                                                                  
   EATOM  =   432.3788 eV,   31.7789 Ry                                         
                                                                                
   TITEL  = PAW_PBE O 08Apr2002                                                 
   LULTRA =        F    use ultrasoft PP ?                                      
   IUNSCR =        0    unscreen: 0-lin 1-nonlin 2-no                           
   RPACOR =     .000    partial core radius                                     
   POMASS =   16.000; ZVAL   =    6.000    mass and valenz                      
   RCORE  =    1.520    outmost cutoff radius                                   
   RWIGS  =    1.550; RWIGS  =     .820    wigner-seitz radius (au A)           
   ENMAX  =  400.000; ENMIN  =  300.000 eV                                      
   ICORE  =        2    local potential                                         
   LCOR   =        T    correct aug charges                                     
   LPAW   =        T    paw PP                                                  
   EAUG   =  605.392                                                            
   DEXC   =     .000                                                            
   RMAX   =    2.264    core radius for proj-oper                               
   RAUG   =    1.300    factor for augmentation sphere                          
   RDEP   =    1.550    radius for radial grids                                 
   QCUT   =   -5.520; QGAM   =   11.041    optimization parameters              
                                                                                
   Description                                                                  
     l     E      TYP  RCUT    TYP  RCUT                                        
     0   .000     23  1.200                                                     
     0  -.700     23  1.200                                                     
     1   .000     23  1.520                                                     
     1   .600     23  1.520                                                     
     2   .000      7  1.500                                                     
  local pseudopotential read in
  atomic valenz-charges read in
  non local Contribution for L=            0  read in
    real space projection operators read in
  non local Contribution for L=            0  read in
    real space projection operators read in
  non local Contribution for L=            1  read in
    real space projection operators read in
  non local Contribution for L=            1  read in
    real space projection operators read in
    PAW grid and wavefunctions read in

   number of l-projection  operators is LMAX  =            4
   number of lm-projection operators is LMMAX =            8

 PAW_PBE Sn_d 06Sep2000                 :
 energy of atom  1       EATOM=-1893.0782
 kinetic energy error for atom=    0.0047 (will be added to EATOM!!)
 PAW_PBE O 08Apr2002                    :
 energy of atom  2       EATOM= -432.3788
 kinetic energy error for atom=    0.1156 (will be added to EATOM!!)


 POSCAR:  POSCAR by pos_vscal                    
  positions in direct lattice
  velocities in cartesian coordinates
 exchange correlation table for  LEXCH =        8
   RHO(1)=    0.500       N(1)  =     2000
   RHO(2)=  100.500       N(2)  =     4000



--------------------------------------------------------------------------------------------------------


 ion  position               nearest neighbor table
   1  0.000  0.000  0.000 -   3 2.060   4 2.060   5 2.064   6 2.064   5 2.064   6 2.064   2 3.727   2 3.727
                              2 3.727   2 3.727   2 3.727   2 3.727   2 3.727   2 3.727
   2  0.500  0.500  0.500 -   5 2.060   6 2.060   3 2.064   4 2.064   3 2.064   4 2.064   1 3.727   1 3.727
                              1 3.727   1 3.727   1 3.727   1 3.727   1 3.727   1 3.727
   3  0.306  0.306  0.000 -   1 2.060   2 2.064   2 2.064
   4  0.694  0.694  0.000 -   1 2.060   2 2.064   2 2.064
   5  0.806  0.194  0.500 -   2 2.060   1 2.064   1 2.064
   6  0.194  0.806  0.500 -   2 2.060   1 2.064   1 2.064

  LATTYP: Found a simple tetragonal cell.
 ALAT       =     4.7608068246
 C/A-ratio  =     0.6714716020
  
  Lattice vectors:
  
 A1 = (   4.7608068246,   0.0000000000,   0.0000000000)
 A2 = (   0.0000000000,   4.7608068246,   0.0000000000)
 A3 = (   0.0000000000,   0.0000000000,   3.1967465854)
 Subroutine PRICEL returns:
 Original cell was already a primitive cell.
 

Analysis of symmetry for initial positions (statically):

 Routine SETGRP: Setting up the symmetry group for a 
 simple tetragonal supercell.


 Subroutine GETGRP returns: Found 16 space group operations
 (whereof  8 operations were pure point group operations)
 out of a pool of 16 trial point group operations.


The static configuration has the point symmetry D_2h.
 The point group associated with its full space group is D_4h.

Analysis of symmetry for dynamics (positions and initial velocities):

 Subroutine DYNSYM returns: Found 16 space group operations
 (whereof  8 operations were pure point group operations)
 out of a pool of 16 trial space group operations
 (whereof  8 operations were pure point group operations)
 and found also     1 'primitive' translations


The dynamic configuration has the point symmetry D_2h.
 The point group associated with its full space group is D_4h.


 KPOINTS: Automatic generation                    

Automatic generation of k-mesh.
 
 Subroutine IBZKPT returns following result:
 ===========================================
 
 Found     60 irreducible k-points:
 
 Following reciprocal coordinates:
            Coordinates               Weight
  0.000000  0.000000  0.000000      1.000000
  0.166667  0.000000  0.000000      4.000000
  0.333333  0.000000  0.000000      4.000000
  0.500000  0.000000  0.000000      2.000000
  0.166667  0.166667  0.000000      4.000000
  0.333333  0.166667  0.000000      8.000000
  0.500000  0.166667  0.000000      4.000000
  0.333333  0.333333  0.000000      4.000000
  0.500000  0.333333  0.000000      4.000000
  0.500000  0.500000  0.000000      1.000000
  0.000000  0.000000  0.100000      2.000000
  0.166667  0.000000  0.100000      8.000000
  0.333333  0.000000  0.100000      8.000000
  0.500000  0.000000  0.100000      4.000000
  0.166667  0.166667  0.100000      8.000000
  0.333333  0.166667  0.100000     16.000000
  0.500000  0.166667  0.100000      8.000000
  0.333333  0.333333  0.100000      8.000000
  0.500000  0.333333  0.100000      8.000000
  0.500000  0.500000  0.100000      2.000000
  0.000000  0.000000  0.200000      2.000000
  0.166667  0.000000  0.200000      8.000000
  0.333333  0.000000  0.200000      8.000000
  0.500000  0.000000  0.200000      4.000000
  0.166667  0.166667  0.200000      8.000000
  0.333333  0.166667  0.200000     16.000000
  0.500000  0.166667  0.200000      8.000000
  0.333333  0.333333  0.200000      8.000000
  0.500000  0.333333  0.200000      8.000000
  0.500000  0.500000  0.200000      2.000000
  0.000000  0.000000  0.300000      2.000000
  0.166667  0.000000  0.300000      8.000000
  0.333333  0.000000  0.300000      8.000000
  0.500000  0.000000  0.300000      4.000000
  0.166667  0.166667  0.300000      8.000000
  0.333333  0.166667  0.300000     16.000000
  0.500000  0.166667  0.300000      8.000000
  0.333333  0.333333  0.300000      8.000000
  0.500000  0.333333  0.300000      8.000000
  0.500000  0.500000  0.300000      2.000000
  0.000000  0.000000  0.400000      2.000000
  0.166667  0.000000  0.400000      8.000000
  0.333333  0.000000  0.400000      8.000000
  0.500000  0.000000  0.400000      4.000000
  0.166667  0.166667  0.400000      8.000000
  0.333333  0.166667  0.400000     16.000000
  0.500000  0.166667  0.400000      8.000000
  0.333333  0.333333  0.400000      8.000000
  0.500000  0.333333  0.400000      8.000000
  0.500000  0.500000  0.400000      2.000000
  0.000000  0.000000  0.500000      1.000000
  0.166667  0.000000  0.500000      4.000000
  0.333333  0.000000  0.500000      4.000000
  0.500000  0.000000  0.500000      2.000000
  0.166667  0.166667  0.500000      4.000000
  0.333333  0.166667  0.500000      8.000000
  0.500000  0.166667  0.500000      4.000000
  0.333333  0.333333  0.500000      4.000000
  0.500000  0.333333  0.500000      4.000000
  0.500000  0.500000  0.500000      1.000000
 
 Following cartesian coordinates:
            Coordinates               Weight
  0.000000  0.000000  0.000000      1.000000
  0.166789  0.000000  0.000000      4.000000
  0.333577  0.000000  0.000000      4.000000
  0.500366  0.000000  0.000000      2.000000
  0.166789  0.166789  0.000000      4.000000
  0.333577  0.166789  0.000000      8.000000
  0.500366  0.166789  0.000000      4.000000
  0.333577  0.333577  0.000000      4.000000
  0.500366  0.333577  0.000000      4.000000
  0.500366  0.500366  0.000000      1.000000
  0.000000  0.000000  0.149036      2.000000
  0.166789  0.000000  0.149036      8.000000
  0.333577  0.000000  0.149036      8.000000
  0.500366  0.000000  0.149036      4.000000
  0.166789  0.166789  0.149036      8.000000
  0.333577  0.166789  0.149036     16.000000
  0.500366  0.166789  0.149036      8.000000
  0.333577  0.333577  0.149036      8.000000
  0.500366  0.333577  0.149036      8.000000
  0.500366  0.500366  0.149036      2.000000
  0.000000  0.000000  0.298071      2.000000
  0.166789  0.000000  0.298071      8.000000
  0.333577  0.000000  0.298071      8.000000
  0.500366  0.000000  0.298071      4.000000
  0.166789  0.166789  0.298071      8.000000
  0.333577  0.166789  0.298071     16.000000
  0.500366  0.166789  0.298071      8.000000
  0.333577  0.333577  0.298071      8.000000
  0.500366  0.333577  0.298071      8.000000
  0.500366  0.500366  0.298071      2.000000
  0.000000  0.000000  0.447107      2.000000
  0.166789  0.000000  0.447107      8.000000
  0.333577  0.000000  0.447107      8.000000
  0.500366  0.000000  0.447107      4.000000
  0.166789  0.166789  0.447107      8.000000
  0.333577  0.166789  0.447107     16.000000
  0.500366  0.166789  0.447107      8.000000
  0.333577  0.333577  0.447107      8.000000
  0.500366  0.333577  0.447107      8.000000
  0.500366  0.500366  0.447107      2.000000
  0.000000  0.000000  0.596142      2.000000
  0.166789  0.000000  0.596142      8.000000
  0.333577  0.000000  0.596142      8.000000
  0.500366  0.000000  0.596142      4.000000
  0.166789  0.166789  0.596142      8.000000
  0.333577  0.166789  0.596142     16.000000
  0.500366  0.166789  0.596142      8.000000
  0.333577  0.333577  0.596142      8.000000
  0.500366  0.333577  0.596142      8.000000
  0.500366  0.500366  0.596142      2.000000
  0.000000  0.000000  0.745178      1.000000
  0.166789  0.000000  0.745178      4.000000
  0.333577  0.000000  0.745178      4.000000
  0.500366  0.000000  0.745178      2.000000
  0.166789  0.166789  0.745178      4.000000
  0.333577  0.166789  0.745178      8.000000
  0.500366  0.166789  0.745178      4.000000
  0.333577  0.333577  0.745178      4.000000
  0.500366  0.333577  0.745178      4.000000
  0.500366  0.500366  0.745178      1.000000
 
 TETIRR: Found    540 inequivalent tetrahedra from     2160


--------------------------------------------------------------------------------------------------------




 Dimension of arrays:
   k-points           NKPTS =     60   k-points in BZ     NKDIM =     60   number of bands    NBANDS=    128
   number of dos      NEDOS =    301   number of ions     NIONS =      6
   non local maximal  LDIM  =      6   non local SUM 2l+1 LMDIM =     18
   total plane-waves  NPLWV =  24576
   max r-space proj   IRMAX =      1   max aug-charges    IRDMAX= 121365
   dimension x,y,z NGX =    32 NGY =   32 NGZ =   24
   dimension x,y,z NGXF=    64 NGYF=   64 NGZF=   48
   support grid    NGXF=   128 NGYF=  128 NGZF=   96
   ions per type =               2   4
 NGX,Y,Z   is equivalent  to a cutoff of  11.17, 11.17, 12.48 a.u.
 NGXF,Y,Z  is equivalent  to a cutoff of  22.35, 22.35, 24.96 a.u.


 I would recommend the setting:
   dimension x,y,z NGX =    31 NGY =   31 NGZ =   21
 SYSTEM =  ZnO                                     
 POSCAR =   POSCAR by pos_vscal                    

 Startparameter for this run:
   NWRITE =      2    write-flag & timer
   PREC   = accura    medium, high low
   ISTART =      0    job   : 0-new  1-cont  2-samecut
   ICHARG =      2    charge: 1-file 2-atom 10-const
   ISPIN  =      1    spin polarized calculation?
   LNONCOLLINEAR =      F non collinear calculations
   LSORBIT =      F    spin-orbit coupling
   INIWAV =      1    electr: 0-lowe 1-rand  2-diag
   LASPH  =      F    aspherical Exc in radial PAW
   METAGGA=      F    non-selfconsistent MetaGGA calc.

 Electronic Relaxation 1
   ENCUT  =  400.0 eV  29.40 Ry    5.42 a.u.   7.76  7.76  5.21*2*pi/ulx,y,z
   ENINI  =  400.0     initial cutoff
   ENAUG  =  605.4 eV  augmentation charge cutoff
   NELM   =     60;   NELMIN=  2; NELMDL= -5     # of ELM steps 
   EDIFF  = 0.1E-04   stopping-criterion for ELM
   LREAL  =      F    real-space projection
   LCOMPAT=      F    compatible to vasp.4.4
   LREAL_COMPAT= F    compatible to vasp.4.5.1-3
   GGA_COMPAT  = T    GGA compatible to vasp.4.4-vasp.4.6
   LMAXPAW     = -100 max onsite density
   LMAXMIX     =    4 max onsite mixed and CHGCAR
   VOSKOWN=      0    Vosko Wilk Nusair interpolation
   ROPT   =    0.00000   0.00000
 Ionic relaxation
   EDIFFG = 0.1E-03   stopping-criterion for IOM
   NSW    =      0    number of steps for IOM
   NBLOCK =      1;   KBLOCK =      1    inner block; outer block 
   IBRION =     -1    ionic relax: 0-MD 1-quasi-New 2-CG
   NFREE  =      0    steps in history (QN), initial steepest desc. (CG)
   ISIF   =      2    stress and relaxation
   IWAVPR =     10    prediction:  0-non 1-charg 2-wave 3-comb
   ISYM   =      2    0-nonsym 1-usesym 2-fastsym
   LCORR  =      T    Harris-Foulkes like correction to forces

   POTIM  = 0.5000    time-step for ionic-motion
   TEIN   =    0.0    initial temperature
   TEBEG  =    0.0;   TEEND  =   0.0 temperature during run
   SMASS  =  -3.00    Nose mass-parameter (am)
   estimated Nose-frequenzy (Omega)   =  0.10E-29 period in steps =****** mass=  -0.518E-27a.u.
   NPACO  =    256;   APACO  = 16.0  distance and # of slots for P.C.
   PSTRESS=    0.0 pullay stress

  Mass of Ions in am
   POMASS = 118.71 16.00
  Ionic Valenz
   ZVAL   =  14.00  6.00
  Atomic Wigner-Seitz radii
   RWIGS  =   1.20  1.20
   NELECT =      52.0000    total number of electrons
   NUPDOWN=      -1.0000    fix difference up-down

 DOS related values:
   EMIN   =  10.00;   EMAX   =-10.00  energy-range for DOS
   EFERMI =   0.00
   ISMEAR =    -5;   SIGMA  =   0.20  broadening in eV -4-tet -1-fermi 0-gaus

 Electronic relaxation 2 (details)
   IALGO  =     68    algorithm
   LDIAG  =      T    sub-space diagonalisation
   IMIX   =      4    mixing-type and parameters
     AMIX     =   0.40;   BMIX     =  1.00
     AMIX_MAG =   1.60;   BMIX_MAG =  1.00
     AMIN     =   0.10
     WC   =   100.;   INIMIX=   1;  MIXPRE=   1

 Intra band minimization:
   WEIMIN = 0.0000     energy-eigenvalue tresh-hold
   EBREAK =  0.20E-07  absolut break condition
   DEPER  =   0.30     relativ break condition  

   TIME   =   0.40     timestep for ELM

  volume/ion in A,a.u.               =      12.08        81.49
  Fermi-wavevector in a.u.,A,eV,Ry     =   1.465726  2.769821 29.230119  2.148353
  Thomas-Fermi vector in A             =   2.581549

 Write flags
   LWAVE  =      T    write WAVECAR
   LCHARG =      T    write CHGCAR
   LVTOT  =      F    write LOCPOT, local potential
   LELF   =      F    write electronic localiz. function (ELF)
   LORBIT =     10    0 simple, 1 ext, 2 COOP (PROOUT)


 Dipole corrections
   LMONO  =      F    monopole corrections only (constant potential shift)
   LDIPOL =      F    correct potential (dipole corrections)
   IDIPOL =      0    1-x, 2-y, 3-z, 4-all directions 
   EPSILON=  1.0000000 bulk dielectric constant

 Exchange correlation treatment:
   GGA     =    --    GGA type
   LEXCH   =     8    internal setting for exchange type
   VOSKOWN=      0    Vosko Wilk Nusair interpolation
   LHFCALC =     F    Hartree Fock is set to
   LHFONE  =     F    Hartree Fock one center treatment
   AEXX    =    0.0000 exact exchange contribution

 Linear response parameters
   LEPSILON=     F    determine dielectric tensor
   LRPA    =     F    only Hartree local field effects (RPA)
   LNABLA  =     F    use nabla operator in PAW spheres
   LVEL    =     F    velocity operator in full k-point grid
   LINTERFAST=   F  fast interpolation
   KINTER  =     0    interpolate to denser k-point grid
   CSHIFT  =0.1000    complex shift for real part using Kramers Kronig
   OMEGAMAX=  -1.0    maximum frequency

 Orbital magnetization related:
   ORBITALMAG=     F  switch on orbital magnetization
   LCHIMAG   =     F  perturbation theory with respect to B field



--------------------------------------------------------------------------------------------------------


 Static calculation
 charge density and potential will be updated during run
 non-spin polarized calculation
 RMM-DIIS sequential band-by-band and
  variant of blocked Davidson during initial phase
 perform sub-space diagonalisation
    before iterative eigenvector-optimisation
 modified Broyden-mixing scheme, WC =      100.0
 initial mixing is a Kerker type mixing with AMIX =  0.4000 and BMIX =      1.0000
 Hartree-type preconditioning will be used
 using additional bands           102
 reciprocal scheme for non local part
 use partial core corrections
 calculate Harris-corrections to forces 
   (improved forces if not selfconsistent)
 use gradient corrections 
 use of overlap-Matrix (Vanderbilt PP)
 Fermi weights with tetrahedron method with Bloechl corrections


--------------------------------------------------------------------------------------------------------


  energy-cutoff  :      400.00
  volume of cell :       72.4552
      direct lattice vectors                 reciprocal lattice vectors
     4.760806825  0.000000000  0.000000000     0.210048430  0.000000000  0.000000000
     0.000000000  4.760806825  0.000000000     0.000000000  0.210048430  0.000000000
     0.000000000  0.000000000  3.196746585     0.000000000  0.000000000  0.312818040

  length of vectors
     4.760806825  4.760806825  3.196746585     0.210048430  0.210048430  0.312818040



 k-points in units of 2pi/SCALE and weight: Automatic generation                    
   0.00000000  0.00000000  0.00000000       0.003
   0.16678861  0.00000000  0.00000000       0.011
   0.33357721  0.00000000  0.00000000       0.011
   0.50036582  0.00000000  0.00000000       0.006
   0.16678861  0.16678861  0.00000000       0.011
   0.33357721  0.16678861  0.00000000       0.022
   0.50036582  0.16678861  0.00000000       0.011
   0.33357721  0.33357721  0.00000000       0.011
   0.50036582  0.33357721  0.00000000       0.011
   0.50036582  0.50036582  0.00000000       0.003
   0.00000000  0.00000000  0.14903559       0.006
   0.16678861  0.00000000  0.14903559       0.022
   0.33357721  0.00000000  0.14903559       0.022
   0.50036582  0.00000000  0.14903559       0.011
   0.16678861  0.16678861  0.14903559       0.022
   0.33357721  0.16678861  0.14903559       0.044
   0.50036582  0.16678861  0.14903559       0.022
   0.33357721  0.33357721  0.14903559       0.022
   0.50036582  0.33357721  0.14903559       0.022
   0.50036582  0.50036582  0.14903559       0.006
   0.00000000  0.00000000  0.29807117       0.006
   0.16678861  0.00000000  0.29807117       0.022
   0.33357721  0.00000000  0.29807117       0.022
   0.50036582  0.00000000  0.29807117       0.011
   0.16678861  0.16678861  0.29807117       0.022
   0.33357721  0.16678861  0.29807117       0.044
   0.50036582  0.16678861  0.29807117       0.022
   0.33357721  0.33357721  0.29807117       0.022
   0.50036582  0.33357721  0.29807117       0.022
   0.50036582  0.50036582  0.29807117       0.006
   0.00000000  0.00000000  0.44710676       0.006
   0.16678861  0.00000000  0.44710676       0.022
   0.33357721  0.00000000  0.44710676       0.022
   0.50036582  0.00000000  0.44710676       0.011
   0.16678861  0.16678861  0.44710676       0.022
   0.33357721  0.16678861  0.44710676       0.044
   0.50036582  0.16678861  0.44710676       0.022
   0.33357721  0.33357721  0.44710676       0.022
   0.50036582  0.33357721  0.44710676       0.022
   0.50036582  0.50036582  0.44710676       0.006
   0.00000000  0.00000000  0.59614234       0.006
   0.16678861  0.00000000  0.59614234       0.022
   0.33357721  0.00000000  0.59614234       0.022
   0.50036582  0.00000000  0.59614234       0.011
   0.16678861  0.16678861  0.59614234       0.022
   0.33357721  0.16678861  0.59614234       0.044
   0.50036582  0.16678861  0.59614234       0.022
   0.33357721  0.33357721  0.59614234       0.022
   0.50036582  0.33357721  0.59614234       0.022
   0.50036582  0.50036582  0.59614234       0.006
   0.00000000  0.00000000  0.74517793       0.003
   0.16678861  0.00000000  0.74517793       0.011
   0.33357721  0.00000000  0.74517793       0.011
   0.50036582  0.00000000  0.74517793       0.006
   0.16678861  0.16678861  0.74517793       0.011
   0.33357721  0.16678861  0.74517793       0.022
   0.50036582  0.16678861  0.74517793       0.011
   0.33357721  0.33357721  0.74517793       0.011
   0.50036582  0.33357721  0.74517793       0.011
   0.50036582  0.50036582  0.74517793       0.003

 k-points in reciprocal lattice and weights: Automatic generation                    
   0.00000000  0.00000000  0.00000000       0.003
   0.16666667  0.00000000  0.00000000       0.011
   0.33333333  0.00000000  0.00000000       0.011
   0.50000000  0.00000000  0.00000000       0.006
   0.16666667  0.16666667  0.00000000       0.011
   0.33333333  0.16666667  0.00000000       0.022
   0.50000000  0.16666667  0.00000000       0.011
   0.33333333  0.33333333  0.00000000       0.011
   0.50000000  0.33333333  0.00000000       0.011
   0.50000000  0.50000000  0.00000000       0.003
   0.00000000  0.00000000  0.10000000       0.006
   0.16666667  0.00000000  0.10000000       0.022
   0.33333333  0.00000000  0.10000000       0.022
   0.50000000  0.00000000  0.10000000       0.011
   0.16666667  0.16666667  0.10000000       0.022
   0.33333333  0.16666667  0.10000000       0.044
   0.50000000  0.16666667  0.10000000       0.022
   0.33333333  0.33333333  0.10000000       0.022
   0.50000000  0.33333333  0.10000000       0.022
   0.50000000  0.50000000  0.10000000       0.006
   0.00000000  0.00000000  0.20000000       0.006
   0.16666667  0.00000000  0.20000000       0.022
   0.33333333  0.00000000  0.20000000       0.022
   0.50000000  0.00000000  0.20000000       0.011
   0.16666667  0.16666667  0.20000000       0.022
   0.33333333  0.16666667  0.20000000       0.044
   0.50000000  0.16666667  0.20000000       0.022
   0.33333333  0.33333333  0.20000000       0.022
   0.50000000  0.33333333  0.20000000       0.022
   0.50000000  0.50000000  0.20000000       0.006
   0.00000000  0.00000000  0.30000000       0.006
   0.16666667  0.00000000  0.30000000       0.022
   0.33333333  0.00000000  0.30000000       0.022
   0.50000000  0.00000000  0.30000000       0.011
   0.16666667  0.16666667  0.30000000       0.022
   0.33333333  0.16666667  0.30000000       0.044
   0.50000000  0.16666667  0.30000000       0.022
   0.33333333  0.33333333  0.30000000       0.022
   0.50000000  0.33333333  0.30000000       0.022
   0.50000000  0.50000000  0.30000000       0.006
   0.00000000  0.00000000  0.40000000       0.006
   0.16666667  0.00000000  0.40000000       0.022
   0.33333333  0.00000000  0.40000000       0.022
   0.50000000  0.00000000  0.40000000       0.011
   0.16666667  0.16666667  0.40000000       0.022
   0.33333333  0.16666667  0.40000000       0.044
   0.50000000  0.16666667  0.40000000       0.022
   0.33333333  0.33333333  0.40000000       0.022
   0.50000000  0.33333333  0.40000000       0.022
   0.50000000  0.50000000  0.40000000       0.006
   0.00000000  0.00000000  0.50000000       0.003
   0.16666667  0.00000000  0.50000000       0.011
   0.33333333  0.00000000  0.50000000       0.011
   0.50000000  0.00000000  0.50000000       0.006
   0.16666667  0.16666667  0.50000000       0.011
   0.33333333  0.16666667  0.50000000       0.022
   0.50000000  0.16666667  0.50000000       0.011
   0.33333333  0.33333333  0.50000000       0.011
   0.50000000  0.33333333  0.50000000       0.011
   0.50000000  0.50000000  0.50000000       0.003

 position of ions in fractional coordinates (direct lattice) 
   0.00000000  0.00000000  0.00000000
   0.50000000  0.50000000  0.50000000
   0.30599180  0.30599180  0.00000000
   0.69400820  0.69400820  0.00000000
   0.80599180  0.19400820  0.50000000
   0.19400820  0.80599180  0.50000000

 position of ions in cartesian coordinates  (Angst):
   0.00000000  0.00000000  0.00000000
   2.38040341  2.38040341  1.59837329
   1.45676785  1.45676785  0.00000000
   3.30403898  3.30403898  0.00000000
   3.83717126  0.92363557  1.59837329
   0.92363557  3.83717126  1.59837329



--------------------------------------------------------------------------------------------------------


 k-point  1 :  0.00000.00000.0000  plane waves:    1299
 k-point  2 :  0.16670.00000.0000  plane waves:    1319
 k-point  3 :  0.33330.00000.0000  plane waves:    1322
 k-point  4 :  0.50000.00000.0000  plane waves:    1336
 k-point  5 :  0.16670.16670.0000  plane waves:    1325
 k-point  6 :  0.33330.16670.0000  plane waves:    1315
 k-point  7 :  0.50000.16670.0000  plane waves:    1324
 k-point  8 :  0.33330.33330.0000  plane waves:    1317
 k-point  9 :  0.50000.33330.0000  plane waves:    1302
 k-point 10 :  0.50000.50000.0000  plane waves:    1308
 k-point 11 :  0.00000.00000.1000  plane waves:    1323
 k-point 12 :  0.16670.00000.1000  plane waves:    1309
 k-point 13 :  0.33330.00000.1000  plane waves:    1325
 k-point 14 :  0.50000.00000.1000  plane waves:    1326
 k-point 15 :  0.16670.16670.1000  plane waves:    1315
 k-point 16 :  0.33330.16670.1000  plane waves:    1318
 k-point 17 :  0.50000.16670.1000  plane waves:    1320
 k-point 18 :  0.33330.33330.1000  plane waves:    1303
 k-point 19 :  0.50000.33330.1000  plane waves:    1306
 k-point 20 :  0.50000.50000.1000  plane waves:    1312
 k-point 21 :  0.00000.00000.2000  plane waves:    1319
 k-point 22 :  0.16670.00000.2000  plane waves:    1314
 k-point 23 :  0.33330.00000.2000  plane waves:    1314
 k-point 24 :  0.50000.00000.2000  plane waves:    1310
 k-point 25 :  0.16670.16670.2000  plane waves:    1316
 k-point 26 :  0.33330.16670.2000  plane waves:    1315
 k-point 27 :  0.50000.16670.2000  plane waves:    1312
 k-point 28 :  0.33330.33330.2000  plane waves:    1302
 k-point 29 :  0.50000.33330.2000  plane waves:    1318
 k-point 30 :  0.50000.50000.2000  plane waves:    1324
 k-point 31 :  0.00000.00000.3000  plane waves:    1314
 k-point 32 :  0.16670.00000.3000  plane waves:    1324
 k-point 33 :  0.33330.00000.3000  plane waves:    1318
 k-point 34 :  0.50000.00000.3000  plane waves:    1314
 k-point 35 :  0.16670.16670.3000  plane waves:    1315
 k-point 36 :  0.33330.16670.3000  plane waves:    1318
 k-point 37 :  0.50000.16670.3000  plane waves:    1318
 k-point 38 :  0.33330.33330.3000  plane waves:    1315
 k-point 39 :  0.50000.33330.3000  plane waves:    1310
 k-point 40 :  0.50000.50000.3000  plane waves:    1308
 k-point 41 :  0.00000.00000.4000  plane waves:    1322
 k-point 42 :  0.16670.00000.4000  plane waves:    1315
 k-point 43 :  0.33330.00000.4000  plane waves:    1310
 k-point 44 :  0.50000.00000.4000  plane waves:    1320
 k-point 45 :  0.16670.16670.4000  plane waves:    1306
 k-point 46 :  0.33330.16670.4000  plane waves:    1322
 k-point 47 :  0.50000.16670.4000  plane waves:    1324
 k-point 48 :  0.33330.33330.4000  plane waves:    1325
 k-point 49 :  0.50000.33330.4000  plane waves:    1318
 k-point 50 :  0.50000.50000.4000  plane waves:    1320
 k-point 51 :  0.00000.00000.5000  plane waves:    1306
 k-point 52 :  0.16670.00000.5000  plane waves:    1308
 k-point 53 :  0.33330.00000.5000  plane waves:    1314
 k-point 54 :  0.50000.00000.5000  plane waves:    1328
 k-point 55 :  0.16670.16670.5000  plane waves:    1304
 k-point 56 :  0.33330.16670.5000  plane waves:    1322
 k-point 57 :  0.50000.16670.5000  plane waves:    1324
 k-point 58 :  0.33330.33330.5000  plane waves:    1330
 k-point 59 :  0.50000.33330.5000  plane waves:    1324
 k-point 60 :  0.50000.50000.5000  plane waves:    1344

 maximum and minimum number of plane-waves per node :     348    301

 maximum number of plane-waves:    1344
 maximal index in each direction: 
   IXMAX=  7   IYMAX=  7   IZMAX=  5
   IXMIN= -8   IYMIN= -8   IZMIN= -5

 NGX is ok and might be reduce to  32
 NGY is ok and might be reduce to  32
 NGZ is ok and might be reduce to  22

 parallel 3D FFT for wavefunctions:
    minimum data exchange during FFTs selected (reduces bandwidth)
 parallel 3D FFT for charge:
    minimum data exchange during FFTs selected (reduces bandwidth)


 total amount of memory used by VASP on root node  66685. kBytes
========================================================================

   base      :    30000. kBytes
   nonl-proj :     5907. kBytes
   fftplans  :     3841. kBytes
   grid      :     4419. kBytes
   one-center:       31. kBytes
   wavefun   :    22487. kBytes

 Broyden mixing: mesh for mixing (old mesh)
   NGX = 15   NGY = 15   NGZ = 11
  (NGX  = 64   NGY  = 64   NGZ  = 48)
  gives a total of   2475 points

 initial charge density was supplied:
 charge density of overlapping atoms calculated
 number of electron   52.0000000 magnetization 
 keeping initial charge density in first step


--------------------------------------------------------------------------------------------------------


 Maximum index for augmentation-charges         14793 (set IRDMAX)


--------------------------------------------------------------------------------------------------------


 First call to EWALD:  gamma=   0.425
 Maximum number of real-space cells 2x 2x 3
 Maximum number of reciprocal cells 3x 3x 2

    FEWALD:  cpu time    0.00: real time    0.00
   RESPFUN:  cpu time    0.00: real time    0.00


----------------------------------------- Iteration    1(   1)  ---------------------------------------


    POTLOK:  cpu time    0.05: real time    0.05
    SETDIJ:  cpu time    0.08: real time    0.08
     EDDAV:  cpu time   30.89: real time   31.33
 BZINTS: Fermi energy: 17.084569; 52.000000 electrons
         Band energy: 176.705557;  BLOECHL correction: -0.028844
       DOS:  cpu time    0.21: real time    0.21
    --------------------------------------------
      LOOP:  cpu time   31.23: real time   31.67

 eigenvalue-minimisations  : 23144
 total energy-change (2. order) : 0.4730295E+03  (-0.1215953E+04)
 number of electron   52.0000000 magnetization 
 augmentation part    52.0000000 magnetization 

 Free energy of the ion-electron system (eV)
  ---------------------------------------------------
  alpha Z        PSCENC =       180.96687365
  Ewald energy   TEWEN  =     -4166.05284040
  -1/2 Hartree   DENC   =     -1379.37492362
  -exchange  EXHF       =         0.00000000
  -V(xc)+E(xc)   XCENC  =       227.28421294
  PAW double counting   =      3728.10079643    -3809.79989925
  entropy T*S    EENTRO =         0.00000000
  eigenvalues    EBANDS =       176.70555701
  atomic energy  EATOM  =      5515.19971769
  ---------------------------------------------------
  free energy    TOTEN  =       473.02949445 eV

  energy without entropy =      473.02949445  energy(sigma->0) =      473.02949445


--------------------------------------------------------------------------------------------------------




----------------------------------------- Iteration    1(   2)  ---------------------------------------


     EDDAV:  cpu time   23.52: real time   23.81
 BZINTS: Fermi energy:  4.729473; 52.000000 electrons
         Band energy:-274.149227;  BLOECHL correction:  0.000000
       DOS:  cpu time    0.04: real time    0.04
    --------------------------------------------
      LOOP:  cpu time   23.56: real time   23.97

 eigenvalue-minimisations  : 16416
 total energy-change (2. order) :-0.4508548E+03  (-0.3950341E+03)
 number of electron   52.0000000 magnetization 
 augmentation part    52.0000000 magnetization 

 Free energy of the ion-electron system (eV)
  ---------------------------------------------------
  alpha Z        PSCENC =       180.96687365
  Ewald energy   TEWEN  =     -4166.05284040
  -1/2 Hartree   DENC   =     -1379.37492362
  -exchange  EXHF       =         0.00000000
  -V(xc)+E(xc)   XCENC  =       227.28421294
  PAW double counting   =      3728.10079643    -3809.79989925
  entropy T*S    EENTRO =         0.00000000
  eigenvalues    EBANDS =      -274.14922681
  atomic energy  EATOM  =      5515.19971769
  ---------------------------------------------------
  free energy    TOTEN  =        22.17471063 eV

  energy without entropy =       22.17471063  energy(sigma->0) =       22.17471063


--------------------------------------------------------------------------------------------------------




----------------------------------------- Iteration    1(   3)  ---------------------------------------


     EDDAV:  cpu time   25.29: real time   25.65
 BZINTS: Fermi energy:  3.275325; 52.000000 electrons
         Band energy:-338.427230;  BLOECHL correction:  0.000000
       DOS:  cpu time    0.04: real time    0.04
    --------------------------------------------
      LOOP:  cpu time   25.33: real time   25.83

 eigenvalue-minimisations  : 18216
 total energy-change (2. order) :-0.6427800E+02  (-0.6305880E+02)
 number of electron   52.0000000 magnetization 
 augmentation part    52.0000000 magnetization 

 Free energy of the ion-electron system (eV)
  ---------------------------------------------------
  alpha Z        PSCENC =       180.96687365
  Ewald energy   TEWEN  =     -4166.05284040
  -1/2 Hartree   DENC   =     -1379.37492362
  -exchange  EXHF       =         0.00000000
  -V(xc)+E(xc)   XCENC  =       227.28421294
  PAW double counting   =      3728.10079643    -3809.79989925
  entropy T*S    EENTRO =         0.00000000
  eigenvalues    EBANDS =      -338.42723029
  atomic energy  EATOM  =      5515.19971769
  ---------------------------------------------------
  free energy    TOTEN  =       -42.10329284 eV

  energy without entropy =      -42.10329284  energy(sigma->0) =      -42.10329284


--------------------------------------------------------------------------------------------------------




----------------------------------------- Iteration    1(   4)  ---------------------------------------


     EDDAV:  cpu time   23.37: real time   23.67
 BZINTS: Fermi energy:  3.089050; 52.000000 electrons
         Band energy:-340.097461;  BLOECHL correction:  0.000000
       DOS:  cpu time    0.04: real time    0.04
    --------------------------------------------
      LOOP:  cpu time   23.41: real time   23.82

 eigenvalue-minimisations  : 18040
 total energy-change (2. order) :-0.1670231E+01  (-0.1668303E+01)
 number of electron   52.0000000 magnetization 
 augmentation part    52.0000000 magnetization 

 Free energy of the ion-electron system (eV)
  ---------------------------------------------------
  alpha Z        PSCENC =       180.96687365
  Ewald energy   TEWEN  =     -4166.05284040
  -1/2 Hartree   DENC   =     -1379.37492362
  -exchange  EXHF       =         0.00000000
  -V(xc)+E(xc)   XCENC  =       227.28421294
  PAW double counting   =      3728.10079643    -3809.79989925
  entropy T*S    EENTRO =         0.00000000
  eigenvalues    EBANDS =      -340.09746119
  atomic energy  EATOM  =      5515.19971769
  ---------------------------------------------------
  free energy    TOTEN  =       -43.77352374 eV

  energy without entropy =      -43.77352374  energy(sigma->0) =      -43.77352374


--------------------------------------------------------------------------------------------------------




----------------------------------------- Iteration    1(   5)  ---------------------------------------


     EDDAV:  cpu time   24.41: real time   24.70
 BZINTS: Fermi energy:  3.043561; 52.000000 electrons
         Band energy:-340.106339;  BLOECHL correction:  0.000000
       DOS:  cpu time    0.04: real time    0.04
    CHARGE:  cpu time    0.26: real time    0.27
    MIXING:  cpu time    0.00: real time    0.00
    --------------------------------------------
      LOOP:  cpu time   24.71: real time   25.88

 eigenvalue-minimisations  : 18096
 total energy-change (2. order) :-0.8877548E-02  (-0.8876913E-02)
 number of electron   52.0000002 magnetization 
 augmentation part    18.5789425 magnetization 

 Broyden mixing:
  rms(total) = 0.14503E+01    rms(broyden)= 0.14492E+01
  rms(prec ) = 0.30919E+01
  weight for this iteration     100.00

 Free energy of the ion-electron system (eV)
  ---------------------------------------------------
  alpha Z        PSCENC =       180.96687365
  Ewald energy   TEWEN  =     -4166.05284040
  -1/2 Hartree   DENC   =     -1379.37492362
  -exchange  EXHF       =         0.00000000
  -V(xc)+E(xc)   XCENC  =       227.28421294
  PAW double counting   =      3728.10079643    -3809.79989925
  entropy T*S    EENTRO =         0.00000000
  eigenvalues    EBANDS =      -340.10633873
  atomic energy  EATOM  =      5515.19971769
  ---------------------------------------------------
  free energy    TOTEN  =       -43.78240129 eV

  energy without entropy =      -43.78240129  energy(sigma->0) =      -43.78240129


--------------------------------------------------------------------------------------------------------




----------------------------------------- Iteration    1(   6)  ---------------------------------------


    POTLOK:  cpu time    0.05: real time    0.05
    SETDIJ:  cpu time    0.08: real time    0.08
    EDDIAG:  cpu time    4.60: real time    4.65
  RMM-DIIS:  cpu time   12.12: real time   12.12
    ORTHCH:  cpu time    1.56: real time    1.61
 BZINTS: Fermi energy:  6.085030; 52.000000 electrons
         Band energy:-299.287090;  BLOECHL correction:  0.000000
       DOS:  cpu time    0.04: real time    0.04
    CHARGE:  cpu time    0.28: real time    0.28
    MIXING:  cpu time    0.00: real time    0.00
    --------------------------------------------
      LOOP:  cpu time   18.72: real time   18.91

 eigenvalue-minimisations  : 21302
 total energy-change (2. order) : 0.5920654E+01  (-0.1819760E+00)
 number of electron   52.0000002 magnetization 
 augmentation part    17.8304990 magnetization 

 Broyden mixing:
  rms(total) = 0.43607E+00    rms(broyden)= 0.43501E+00
  rms(prec ) = 0.65768E+00
  weight for this iteration     100.00

 eigenvalues of (default mixing * dielectric matrix)
  average eigenvalue GAMMA=   0.8848
  0.8848

 Free energy of the ion-electron system (eV)
  ---------------------------------------------------
  alpha Z        PSCENC =       180.96687365
  Ewald energy   TEWEN  =     -4166.05284040
  -1/2 Hartree   DENC   =     -1423.12120984
  -exchange  EXHF       =         0.00000000
  -V(xc)+E(xc)   XCENC  =       231.22130284
  PAW double counting   =      3878.16376605    -3954.95226786
  entropy T*S    EENTRO =         0.00000000
  eigenvalues    EBANDS =      -299.28708959
  atomic energy  EATOM  =      5515.19971769
  ---------------------------------------------------
  free energy    TOTEN  =       -37.86174745 eV

  energy without entropy =      -37.86174745  energy(sigma->0) =      -37.86174745


--------------------------------------------------------------------------------------------------------




----------------------------------------- Iteration    1(   7)  ---------------------------------------


    POTLOK:  cpu time    0.08: real time    0.08
    SETDIJ:  cpu time    0.08: real time    0.08
    EDDIAG:  cpu time    4.57: real time    4.63
  RMM-DIIS:  cpu time   13.14: real time   13.14
    ORTHCH:  cpu time    1.66: real time    1.68
 BZINTS: Fermi energy:  6.084217; 52.000000 electrons
         Band energy:-300.281831;  BLOECHL correction:  0.000000
       DOS:  cpu time    0.04: real time    0.04
    CHARGE:  cpu time    0.29: real time    0.29
    MIXING:  cpu time    0.00: real time    0.00
    --------------------------------------------
      LOOP:  cpu time   19.87: real time   19.95

 eigenvalue-minimisations  : 23101
 total energy-change (2. order) : 0.1410799E+00  (-0.5222622E-02)
 number of electron   52.0000002 magnetization 
 augmentation part    17.8517407 magnetization 

 Broyden mixing:
  rms(total) = 0.25485E+00    rms(broyden)= 0.25481E+00
  rms(prec ) = 0.39692E+00
  weight for this iteration     100.00

 eigenvalues of (default mixing * dielectric matrix)
  average eigenvalue GAMMA=   1.7569
  0.9684  2.5453

 Free energy of the ion-electron system (eV)
  ---------------------------------------------------
  alpha Z        PSCENC =       180.96687365
  Ewald energy   TEWEN  =     -4166.05284040
  -1/2 Hartree   DENC   =     -1420.34381316
  -exchange  EXHF       =         0.00000000
  -V(xc)+E(xc)   XCENC  =       231.11160764
  PAW double counting   =      3942.49246492    -4020.81284668
  entropy T*S    EENTRO =         0.00000000
  eigenvalues    EBANDS =      -300.28183123
  atomic energy  EATOM  =      5515.19971769
  ---------------------------------------------------
  free energy    TOTEN  =       -37.72066756 eV

  energy without entropy =      -37.72066756  energy(sigma->0) =      -37.72066756


--------------------------------------------------------------------------------------------------------




----------------------------------------- Iteration    1(   8)  ---------------------------------------


    POTLOK:  cpu time    0.08: real time    0.08
    SETDIJ:  cpu time    0.08: real time    0.08
    EDDIAG:  cpu time    4.62: real time    4.70
  RMM-DIIS:  cpu time   12.42: real time   12.42
    ORTHCH:  cpu time    1.61: real time    1.65
 BZINTS: Fermi energy:  6.095579; 52.000000 electrons
         Band energy:-299.213131;  BLOECHL correction:  0.000000
       DOS:  cpu time    0.04: real time    0.04
    CHARGE:  cpu time    0.27: real time    0.27
    MIXING:  cpu time    0.00: real time    0.00
    --------------------------------------------
      LOOP:  cpu time   19.13: real time   19.25

 eigenvalue-minimisations  : 21888
 total energy-change (2. order) : 0.3249024E-01  (-0.7062301E-02)
 number of electron   52.0000002 magnetization 
 augmentation part    17.8479226 magnetization 

 Broyden mixing:
  rms(total) = 0.27776E-01    rms(broyden)= 0.27759E-01
  rms(prec ) = 0.48550E-01
  weight for this iteration     100.00

 eigenvalues of (default mixing * dielectric matrix)
  average eigenvalue GAMMA=   1.7140
  0.9836  2.3296  1.8289

 Free energy of the ion-electron system (eV)
  ---------------------------------------------------
  alpha Z        PSCENC =       180.96687365
  Ewald energy   TEWEN  =     -4166.05284040
  -1/2 Hartree   DENC   =     -1419.00637332
  -exchange  EXHF       =         0.00000000
  -V(xc)+E(xc)   XCENC  =       231.21569401
  PAW double counting   =      4055.35539005    -4136.15350786
  entropy T*S    EENTRO =         0.00000000
  eigenvalues    EBANDS =      -299.21313115
  atomic energy  EATOM  =      5515.19971769
  ---------------------------------------------------
  free energy    TOTEN  =       -37.68817732 eV

  energy without entropy =      -37.68817732  energy(sigma->0) =      -37.68817732


--------------------------------------------------------------------------------------------------------




----------------------------------------- Iteration    1(   9)  ---------------------------------------


    POTLOK:  cpu time    0.08: real time    0.08
    SETDIJ:  cpu time    0.08: real time    0.08
    EDDIAG:  cpu time    4.50: real time    4.56
  RMM-DIIS:  cpu time   13.29: real time   13.29
    ORTHCH:  cpu time    1.56: real time    1.61
 BZINTS: Fermi energy:  6.084327; 52.000000 electrons
         Band energy:-298.468727;  BLOECHL correction:  0.000000
       DOS:  cpu time    0.04: real time    0.04
    CHARGE:  cpu time    0.26: real time    0.27
    MIXING:  cpu time    0.00: real time    0.00
    --------------------------------------------
      LOOP:  cpu time   19.82: real time   19.93

 eigenvalue-minimisations  : 23456
 total energy-change (2. order) : 0.1296391E-02  (-0.1797424E-03)
 number of electron   52.0000002 magnetization 
 augmentation part    17.8325355 magnetization 

 Broyden mixing:
  rms(total) = 0.14464E-01    rms(broyden)= 0.14447E-01
  rms(prec ) = 0.25116E-01
  weight for this iteration     100.00

 eigenvalues of (default mixing * dielectric matrix)
  average eigenvalue GAMMA=   1.7978
  2.5891  2.5891  1.0064  1.0064

 Free energy of the ion-electron system (eV)
  ---------------------------------------------------
  alpha Z        PSCENC =       180.96687365
  Ewald energy   TEWEN  =     -4166.05284040
  -1/2 Hartree   DENC   =     -1419.80800731
  -exchange  EXHF       =         0.00000000
  -V(xc)+E(xc)   XCENC  =       231.27805936
  PAW double counting   =      4054.48464688    -4135.28660337
  entropy T*S    EENTRO =         0.00000000
  eigenvalues    EBANDS =      -298.46872744
  atomic energy  EATOM  =      5515.19971769
  ---------------------------------------------------
  free energy    TOTEN  =       -37.68688093 eV

  energy without entropy =      -37.68688093  energy(sigma->0) =      -37.68688093


--------------------------------------------------------------------------------------------------------




----------------------------------------- Iteration    1(  10)  ---------------------------------------


    POTLOK:  cpu time    0.05: real time    0.05
    SETDIJ:  cpu time    0.08: real time    0.08
    EDDIAG:  cpu time    4.49: real time    4.52
  RMM-DIIS:  cpu time   12.78: real time   12.78
    ORTHCH:  cpu time    1.57: real time    1.65
 BZINTS: Fermi energy:  6.083844; 52.000000 electrons
         Band energy:-298.691629;  BLOECHL correction:  0.000000
       DOS:  cpu time    0.04: real time    0.04
    CHARGE:  cpu time    0.27: real time    0.27
    MIXING:  cpu time    0.00: real time    0.00
    --------------------------------------------
      LOOP:  cpu time   19.28: real time   19.40

 eigenvalue-minimisations  : 22463
 total energy-change (2. order) :-0.1980005E-04  (-0.2876438E-04)
 number of electron   52.0000002 magnetization 
 augmentation part    17.8382222 magnetization 

 Broyden mixing:
  rms(total) = 0.10806E-02    rms(broyden)= 0.10704E-02
  rms(prec ) = 0.19716E-02
  weight for this iteration     100.00

 eigenvalues of (default mixing * dielectric matrix)
  average eigenvalue GAMMA=   1.7268
  2.7890  0.9822  0.9822  2.1975  1.6833

 Free energy of the ion-electron system (eV)
  ---------------------------------------------------
  alpha Z        PSCENC =       180.96687365
  Ewald energy   TEWEN  =     -4166.05284040
  -1/2 Hartree   DENC   =     -1419.34277160
  -exchange  EXHF       =         0.00000000
  -V(xc)+E(xc)   XCENC  =       231.24090443
  PAW double counting   =      4055.39049041    -4136.39764623
  entropy T*S    EENTRO =         0.00000000
  eigenvalues    EBANDS =      -298.69162869
  atomic energy  EATOM  =      5515.19971769
  ---------------------------------------------------
  free energy    TOTEN  =       -37.68690073 eV

  energy without entropy =      -37.68690073  energy(sigma->0) =      -37.68690073


--------------------------------------------------------------------------------------------------------




----------------------------------------- Iteration    1(  11)  ---------------------------------------


    POTLOK:  cpu time    0.05: real time    0.05
    SETDIJ:  cpu time    0.08: real time    0.08
    EDDIAG:  cpu time    4.58: real time    4.63
  RMM-DIIS:  cpu time   12.57: real time   12.57
    ORTHCH:  cpu time    1.56: real time    1.61
 BZINTS: Fermi energy:  6.077873; 52.000000 electrons
         Band energy:-298.651627;  BLOECHL correction:  0.000000
       DOS:  cpu time    0.04: real time    0.04
    --------------------------------------------
      LOOP:  cpu time   18.89: real time   18.98

 eigenvalue-minimisations  : 21957
 total energy-change (2. order) :-0.7635042E-06  (-0.6120497E-06)
 number of electron   52.0000002 magnetization 
 augmentation part    17.8382222 magnetization 

 Free energy of the ion-electron system (eV)
  ---------------------------------------------------
  alpha Z        PSCENC =       180.96687365
  Ewald energy   TEWEN  =     -4166.05284040
  -1/2 Hartree   DENC   =     -1419.39659512
  -exchange  EXHF       =         0.00000000
  -V(xc)+E(xc)   XCENC  =       231.24529321
  PAW double counting   =      4055.59398895    -4136.59171231
  entropy T*S    EENTRO =         0.00000000
  eigenvalues    EBANDS =      -298.65162717
  atomic energy  EATOM  =      5515.19971769
  ---------------------------------------------------
  free energy    TOTEN  =       -37.68690150 eV

  energy without entropy =      -37.68690150  energy(sigma->0) =      -37.68690150


--------------------------------------------------------------------------------------------------------




 average (electrostatic) potential at core
  the test charge radii are     1.0894  0.7215
  (the norm of the test charge is              1.0000)
      1  -99.6409      2  -99.6409      3  -68.0085      4  -68.0085      5  -68.0085
      6  -68.0085



 E-fermi :   6.0779     XC(G=0): -11.1918     alpha+bet :-14.1275
   add alpha+bet to get absolut eigen values

 k-point   1 :       0.0000    0.0000    0.0000
  band No.  band energies     occupation 
      1     -15.1182      2.00000
      2     -14.3630      2.00000
      3     -14.1274      2.00000
      4     -14.0936      2.00000
      5     -14.0936      2.00000
      6     -14.0269      2.00000
      7     -13.9857      2.00000
      8     -13.9028      2.00000
      9     -13.8606      2.00000
     10     -13.8606      2.00000
     11     -12.8800      2.00000
     12     -11.0734      2.00000
     13     -11.0734      2.00000
     14      -9.3186      2.00000
     15      -2.0905      2.00000
     16       1.9567      2.00000
     17       1.9567      2.00000
     18       2.1018      2.00000
     19       2.9391      2.00000
     20       3.9944      2.00000
     21       4.0641      2.00000
     22       4.7618      2.00000
     23       4.7618      2.00000
     24       5.2265      2.00000
     25       5.2265      2.00000
     26       6.0152      2.00000
     27       7.1431      0.00000
     28      12.1215      0.00000
     29      12.2865      0.00000
     30      12.2865      0.00000
     31      16.4017      0.00000
     32      16.4776      0.00000
     33      18.0294      0.00000
     34      18.0294      0.00000
     35      18.5522      0.00000
     36      18.6165      0.00000
     37      21.1175      0.00000
     38      22.6163      0.00000
     39      25.0323      0.00000
     40      25.5266      0.00000
     41      25.6174      0.00000
     42      25.6174      0.00000
     43      25.7014      0.00000
     44      25.7014      0.00000
     45      26.8180      0.00000
     46      26.8180      0.00000
     47      27.5299      0.00000
     48      28.3592      0.00000
     49      28.7663      0.00000
     50      29.6135      0.00000
     51      32.0028      0.00000
     52      32.0028      0.00000
     53      33.2947      0.00000
     54      33.2947      0.00000
     55      33.3295      0.00000
     56      33.4226      0.00000
     57      35.6053      0.00000
     58      35.6053      0.00000
     59      36.6632      0.00000
     60      36.9574      0.00000
     61      37.0132      0.00000
     62      39.3424      0.00000
     63      39.4371      0.00000
     64      39.7267      0.00000
     65      39.7267      0.00000
     66      39.8856      0.00000
     67      39.8856      0.00000
     68      40.3117      0.00000
     69      40.4719      0.00000
     70      42.2589      0.00000
     71      42.2589      0.00000
     72      42.4733      0.00000
     73      42.6194      0.00000
     74      42.7169      0.00000
     75      45.6483      0.00000
     76      47.1857      0.00000
     77      47.1857      0.00000
     78      47.9382      0.00000
     79      47.9382      0.00000
     80      48.8841      0.00000
     81      49.8396      0.00000
     82      50.7714      0.00000
     83      50.7714      0.00000
     84      51.0466      0.00000
     85      51.0466      0.00000
     86      52.0750      0.00000
     87      52.7458      0.00000
     88      52.7458      0.00000
     89      53.4912      0.00000
     90      53.6186      0.00000
     91      54.1186      0.00000
     92      54.2964      0.00000
     93      54.9349      0.00000
     94      55.0277      0.00000
     95      55.0277      0.00000
     96      55.0358      0.00000
     97      55.5579      0.00000
     98      57.3392      0.00000
     99      57.9908      0.00000
    100      58.0578      0.00000
    101      58.0578      0.00000
    102      58.9463      0.00000
    103      59.6857      0.00000
    104      60.1715      0.00000
    105      61.0513      0.00000
    106      61.0513      0.00000
    107      61.8462      0.00000
    108      62.1964      0.00000
    109      62.1964      0.00000
    110      63.0410      0.00000
    111      64.8548      0.00000
    112      64.8548      0.00000
    113      64.8610      0.00000
    114      65.6483      0.00000
    115      66.5041      0.00000
    116      66.5971      0.00000
    117      66.6316      0.00000
    118      66.6317      0.00000
    119      67.3393      0.00000
    120      68.6865      0.00000
    121      68.6902      0.00000
    122      69.1051      0.00000
    123      69.3760      0.00000
    124      69.8843      0.00000
    125      70.8784      0.00000
    126      71.1398      0.00000
    127      71.2650      0.00000
    128      71.4426      0.00000

 k-point   2 :       0.1667    0.0000    0.0000
  band No.  band energies     occupation 
      1     -15.0771      2.00000
      2     -14.4102      2.00000
      3     -14.1270      2.00000
      4     -14.0918      2.00000
      5     -14.0917      2.00000
      6     -14.0628      2.00000
      7     -13.9794      2.00000
      8     -13.9074      2.00000
      9     -13.8629      2.00000
     10     -13.8628      2.00000
     11     -12.7940      2.00000
     12     -11.2522      2.00000
     13     -10.9147      2.00000
     14      -9.3833      2.00000
     15      -1.9102      2.00000
     16       1.4697      2.00000
     17       2.0934      2.00000
     18       2.2024      2.00000
     19       3.0941      2.00000
     20       3.8223      2.00000
     21       4.2405      2.00000
     22       4.6870      2.00000
     23       4.7612      2.00000
     24       4.7797      2.00000
     25       5.2476      2.00000
     26       5.8760      2.00000
     27       7.8400      0.00000
     28      11.8532      0.00000
     29      12.4104      0.00000
     30      12.5580      0.00000
     31      16.6414      0.00000
     32      16.7395      0.00000
     33      17.7770      0.00000
     34      18.0437      0.00000
     35      18.5698      0.00000
     36      18.5825      0.00000
     37      20.6908      0.00000
     38      22.7721      0.00000
     39      23.4080      0.00000
     40      24.4406      0.00000
     41      25.1385      0.00000
     42      25.7165      0.00000
     43      25.9533      0.00000
     44      26.1090      0.00000
     45      26.7134      0.00000
     46      27.1204      0.00000
     47      28.3712      0.00000
     48      28.5726      0.00000
     49      29.9610      0.00000
     50      30.6059      0.00000
     51      31.1792      0.00000
     52      31.5440      0.00000
     53      32.9749      0.00000
     54      32.9869      0.00000
     55      33.2942      0.00000
     56      34.2170      0.00000
     57      35.6040      0.00000
     58      35.9678      0.00000
     59      36.3939      0.00000
     60      37.1101      0.00000
     61      37.8664      0.00000
     62      38.6276      0.00000
     63      39.0242      0.00000
     64      39.4775      0.00000
     65      39.5443      0.00000
     66      39.7775      0.00000
     67      40.0502      0.00000
     68      40.2739      0.00000
     69      41.0320      0.00000
     70      42.0541      0.00000
     71      42.3414      0.00000
     72      42.8237      0.00000
     73      43.0312      0.00000
     74      43.3773      0.00000
     75      45.3259      0.00000
     76      46.9081      0.00000
     77      47.2615      0.00000
     78      47.3555      0.00000
     79      47.5535      0.00000
     80      48.7078      0.00000
     81      49.3366      0.00000
     82      49.9136      0.00000
     83      51.2095      0.00000
     84      51.4475      0.00000
     85      51.9243      0.00000
     86      51.9750      0.00000
     87      52.0696      0.00000
     88      52.1462      0.00000
     89      53.3112      0.00000
     90      53.5561      0.00000
     91      53.7205      0.00000
     92      54.1075      0.00000
     93      54.7341      0.00000
     94      54.8949      0.00000
     95      55.1050      0.00000
     96      56.1652      0.00000
     97      56.1757      0.00000
     98      57.2779      0.00000
     99      58.2054      0.00000
    100      58.4803      0.00000
    101      58.6541      0.00000
    102      58.7074      0.00000
    103      59.7418      0.00000
    104      60.3517      0.00000
    105      60.6713      0.00000
    106      60.9953      0.00000
    107      61.9791      0.00000
    108      62.0228      0.00000
    109      62.0482      0.00000
    110      62.8060      0.00000
    111      62.9878      0.00000
    112      65.5967      0.00000
    113      65.6184      0.00000
    114      65.6768      0.00000
    115      66.8067      0.00000
    116      66.9103      0.00000
    117      67.1481      0.00000
    118      67.2256      0.00000
    119      67.6959      0.00000
    120      68.0416      0.00000
    121      68.1118      0.00000
    122      68.5141      0.00000
    123      68.7533      0.00000
    124      68.8249      0.00000
    125      69.4310      0.00000
    126      70.0743      0.00000
    127      71.0769      0.00000
    128      71.3167      0.00000

 k-point   3 :       0.3333    0.0000    0.0000
  band No.  band energies     occupation 
      1     -14.9562      2.00000
      2     -14.5642      2.00000
      3     -14.1256      2.00000
      4     -14.1063      2.00000
      5     -14.0880      2.00000
      6     -14.0879      2.00000
      7     -13.9627      2.00000
      8     -13.9210      2.00000
      9     -13.8674      2.00000
     10     -13.8672      2.00000
     11     -12.5402      2.00000
     12     -11.6700      2.00000
     13     -10.5152      2.00000
     14      -9.6198      2.00000
     15      -1.3725      2.00000
     16       0.4872      2.00000
     17       2.4773      2.00000
     18       2.4978      2.00000
     19       3.4143      2.00000
     20       3.5140      2.00000
     21       3.8175      2.00000
     22       4.3541      2.00000
     23       4.7792      2.00000
     24       4.8024      2.00000
     25       5.2958      2.00000
     26       5.5740      2.00000
     27       9.0915      0.00000
     28      11.2909      0.00000
     29      12.7607      0.00000
     30      12.9328      0.00000
     31      16.8838      0.00000
     32      17.2296      0.00000
     33      17.4655      0.00000
     34      18.2140      0.00000
     35      18.5170      0.00000
     36      18.8799      0.00000
     37      19.6856      0.00000
     38      21.3470      0.00000
     39      23.1999      0.00000
     40      23.8476      0.00000
     41      24.4346      0.00000
     42      25.8884      0.00000
     43      26.0813      0.00000
     44      26.2704      0.00000
     45      26.7022      0.00000
     46      26.9223      0.00000
     47      27.6583      0.00000
     48      29.5226      0.00000
     49      30.5596      0.00000
     50      31.2042      0.00000
     51      31.2373      0.00000
     52      32.6730      0.00000
     53      33.2823      0.00000
     54      33.4327      0.00000
     55      34.1642      0.00000
     56      34.2228      0.00000
     57      34.9746      0.00000
     58      36.0005      0.00000
     59      36.1576      0.00000
     60      37.7483      0.00000
     61      37.8093      0.00000
     62      38.6989      0.00000
     63      38.8138      0.00000
     64      39.0035      0.00000
     65      39.2227      0.00000
     66      39.7323      0.00000
     67      39.7784      0.00000
     68      40.1739      0.00000
     69      41.2930      0.00000
     70      41.7064      0.00000
     71      42.8647      0.00000
     72      43.6251      0.00000
     73      43.9039      0.00000
     74      44.0461      0.00000
     75      45.0124      0.00000
     76      45.3837      0.00000
     77      46.3795      0.00000
     78      47.7914      0.00000
     79      47.8731      0.00000
     80      48.3121      0.00000
     81      48.4325      0.00000
     82      48.8418      0.00000
     83      49.9088      0.00000
     84      50.5911      0.00000
     85      50.7564      0.00000
     86      52.3013      0.00000
     87      53.1151      0.00000
     88      53.6199      0.00000
     89      53.7241      0.00000
     90      54.1627      0.00000
     91      54.1765      0.00000
     92      54.3664      0.00000
     93      54.7808      0.00000
     94      55.2240      0.00000
     95      55.4665      0.00000
     96      55.7950      0.00000
     97      56.9570      0.00000
     98      57.2012      0.00000
     99      57.3136      0.00000
    100      57.7445      0.00000
    101      58.7224      0.00000
    102      59.4720      0.00000
    103      59.6291      0.00000
    104      59.8021      0.00000
    105      60.0046      0.00000
    106      60.7862      0.00000
    107      62.1245      0.00000
    108      62.1337      0.00000
    109      62.8305      0.00000
    110      63.4427      0.00000
    111      63.8160      0.00000
    112      63.9690      0.00000
    113      64.4763      0.00000
    114      65.0874      0.00000
    115      65.8414      0.00000
    116      66.1120      0.00000
    117      67.0584      0.00000
    118      67.5381      0.00000
    119      67.6203      0.00000
    120      67.6369      0.00000
    121      68.1484      0.00000
    122      68.5077      0.00000
    123      68.7733      0.00000
    124      68.8263      0.00000
    125      70.0049      0.00000
    126      70.2849      0.00000
    127      70.6050      0.00000
    128      71.6741      0.00000

 k-point   4 :       0.5000    0.0000    0.0000
  band No.  band energies     occupation 
      1     -14.7722      2.00000
      2     -14.7722      2.00000
      3     -14.1215      2.00000
      4     -14.1215      2.00000
      5     -14.0860      2.00000
      6     -14.0860      2.00000
      7     -13.9411      2.00000
      8     -13.9411      2.00000
      9     -13.8697      2.00000
     10     -13.8697      2.00000
     11     -12.1426      2.00000
     12     -12.1426      2.00000
     13     -10.0332      2.00000
     14     -10.0332      2.00000
     15      -0.5320      2.00000
     16      -0.5320      2.00000
     17       2.9296      2.00000
     18       2.9296      2.00000
     19       3.0607      2.00000
     20       3.0607      2.00000
     21       4.0375      2.00000
     22       4.0375      2.00000
     23       4.7976      2.00000
     24       4.7976      2.00000
     25       5.3781      2.00000
     26       5.3781      2.00000
     27      10.3326      0.00000
     28      10.3326      0.00000
     29      13.0590      0.00000
     30      13.0590      0.00000
     31      16.8852      0.00000
     32      16.8852      0.00000
     33      18.4270      0.00000
     34      18.4270      0.00000
     35      18.5104      0.00000
     36      18.5104      0.00000
     37      19.7840      0.00000
     38      19.7840      0.00000
     39      23.7900      0.00000
     40      23.7900      0.00000
     41      24.6156      0.00000
     42      24.6156      0.00000
     43      26.0874      0.00000
     44      26.0874      0.00000
     45      27.1269      0.00000
     46      27.1269      0.00000
     47      27.9215      0.00000
     48      27.9215      0.00000
     49      31.8416      0.00000
     50      31.8416      0.00000
     51      32.4565      0.00000
     52      32.4565      0.00000
     53      33.2060      0.00000
     54      33.2060      0.00000
     55      34.0322      0.00000
     56      34.0322      0.00000
     57      35.4048      0.00000
     58      35.4048      0.00000
     59      38.0001      0.00000
     60      38.0001      0.00000
     61      38.2924      0.00000
     62      38.2924      0.00000
     63      38.3539      0.00000
     64      38.3539      0.00000
     65      39.6528      0.00000
     66      39.6528      0.00000
     67      39.7661      0.00000
     68      39.7661      0.00000
     69      41.2400      0.00000
     70      41.2400      0.00000
     71      42.8162      0.00000
     72      42.8162      0.00000
     73      43.6027      0.00000
     74      43.6027      0.00000
     75      46.2375      0.00000
     76      46.2375      0.00000
     77      47.0878      0.00000
     78      47.0878      0.00000
     79      48.1549      0.00000
     80      48.1549      0.00000
     81      48.4806      0.00000
     82      48.4806      0.00000
     83      49.3705      0.00000
     84      49.3705      0.00000
     85      50.9249      0.00000
     86      50.9249      0.00000
     87      53.6678      0.00000
     88      53.6678      0.00000
     89      53.7639      0.00000
     90      53.7639      0.00000
     91      54.7351      0.00000
     92      54.7351      0.00000
     93      55.4691      0.00000
     94      55.4691      0.00000
     95      56.0159      0.00000
     96      56.0159      0.00000
     97      57.7791      0.00000
     98      57.7791      0.00000
     99      57.8545      0.00000
    100      57.8545      0.00000
    101      58.2541      0.00000
    102      58.2541      0.00000
    103      59.1572      0.00000
    104      59.1572      0.00000
    105      60.1604      0.00000
    106      60.1604      0.00000
    107      62.0370      0.00000
    108      62.0370      0.00000
    109      62.4864      0.00000
    110      62.4864      0.00000
    111      64.5322      0.00000
    112      64.5323      0.00000
    113      64.5361      0.00000
    114      64.5361      0.00000
    115      65.2746      0.00000
    116      65.2746      0.00000
    117      67.4787      0.00000
    118      67.4789      0.00000
    119      67.6896      0.00000
    120      67.6897      0.00000
    121      68.6651      0.00000
    122      68.6716      0.00000
    123      68.6794      0.00000
    124      68.6802      0.00000
    125      70.0084      0.00000
    126      70.0346      0.00000
    127      70.9166      0.00000
    128      71.1469      0.00000

 k-point   5 :       0.1667    0.1667    0.0000
  band No.  band energies     occupation 
      1     -15.0449      2.00000
      2     -14.4642      2.00000
      3     -14.1262      2.00000
      4     -14.0942      2.00000
      5     -14.0876      2.00000
      6     -14.0812      2.00000
      7     -13.9738      2.00000
      8     -13.9113      2.00000
      9     -13.8675      2.00000
     10     -13.8604      2.00000
     11     -12.7019      2.00000
     12     -11.1048      2.00000
     13     -11.0835      2.00000
     14      -9.4680      2.00000
     15      -1.7176      2.00000
     16       1.3700      2.00000
     17       1.9696      2.00000
     18       2.2958      2.00000
     19       3.2175      2.00000
     20       3.6968      2.00000
     21       4.2819      2.00000
     22       4.3954      2.00000
     23       4.7349      2.00000
     24       4.8034      2.00000
     25       5.2031      2.00000
     26       5.7639      2.00000
     27       8.3420      0.00000
     28      11.6645      0.00000
     29      12.6546      0.00000
     30      12.6696      0.00000
     31      16.6441      0.00000
     32      16.9726      0.00000
     33      17.7190      0.00000
     34      18.0383      0.00000
     35      18.5117      0.00000
     36      18.7279      0.00000
     37      20.3614      0.00000
     38      22.9148      0.00000
     39      23.1347      0.00000
     40      23.8885      0.00000
     41      24.4673      0.00000
     42      24.9295      0.00000
     43      25.1667      0.00000
     44      26.0696      0.00000
     45      28.0419      0.00000
     46      28.2543      0.00000
     47      28.4935      0.00000
     48      29.1416      0.00000
     49      29.3260      0.00000
     50      31.1113      0.00000
     51      31.4836      0.00000
     52      32.2344      0.00000
     53      32.2543      0.00000
     54      32.5044      0.00000
     55      32.8964      0.00000
     56      34.4106      0.00000
     57      35.8866      0.00000
     58      36.1206      0.00000
     59      36.1438      0.00000
     60      37.4819      0.00000
     61      37.7929      0.00000
     62      38.4914      0.00000
     63      39.0217      0.00000
     64      39.2097      0.00000
     65      39.5710      0.00000
     66      39.8848      0.00000
     67      40.2983      0.00000
     68      40.8831      0.00000
     69      41.2925      0.00000
     70      41.6437      0.00000
     71      42.0386      0.00000
     72      43.2487      0.00000
     73      43.3850      0.00000
     74      43.5554      0.00000
     75      45.5358      0.00000
     76      45.7939      0.00000
     77      47.3333      0.00000
     78      47.4962      0.00000
     79      47.5145      0.00000
     80      47.8491      0.00000
     81      49.9648      0.00000
     82      50.2989      0.00000
     83      50.4495      0.00000
     84      50.5451      0.00000
     85      51.1887      0.00000
     86      51.6912      0.00000
     87      52.0333      0.00000
     88      52.5378      0.00000
     89      53.5447      0.00000
     90      53.6006      0.00000
     91      53.8557      0.00000
     92      54.5756      0.00000
     93      54.7743      0.00000
     94      55.2170      0.00000
     95      55.4072      0.00000
     96      55.5996      0.00000
     97      56.1423      0.00000
     98      57.9610      0.00000
     99      57.9716      0.00000
    100      58.1687      0.00000
    101      58.7219      0.00000
    102      59.6130      0.00000
    103      59.6664      0.00000
    104      60.1509      0.00000
    105      60.6907      0.00000
    106      60.7329      0.00000
    107      61.4618      0.00000
    108      62.0959      0.00000
    109      62.4221      0.00000
    110      63.0504      0.00000
    111      63.1555      0.00000
    112      63.9357      0.00000
    113      65.1885      0.00000
    114      65.9208      0.00000
    115      66.2442      0.00000
    116      66.8860      0.00000
    117      67.0435      0.00000
    118      67.1767      0.00000
    119      67.9450      0.00000
    120      67.9906      0.00000
    121      68.1021      0.00000
    122      68.7715      0.00000
    123      68.8631      0.00000
    124      69.3106      0.00000
    125      69.3772      0.00000
    126      69.8637      0.00000
    127      70.9329      0.00000
    128      71.3925      0.00000

 k-point   6 :       0.3333    0.1667    0.0000
  band No.  band energies     occupation 
      1     -14.9484      2.00000
      2     -14.6136      2.00000
      3     -14.1226      2.00000
      4     -14.1042      2.00000
      5     -14.0927      2.00000
      6     -14.0860      2.00000
      7     -13.9589      2.00000
      8     -13.9227      2.00000
      9     -13.8697      2.00000
     10     -13.8624      2.00000
     11     -12.4297      2.00000
     12     -11.5214      2.00000
     13     -10.6923      2.00000
     14      -9.7469      2.00000
     15      -1.1604      2.00000
     16       0.6241      2.00000
     17       2.2881      2.00000
     18       2.5643      2.00000
     19       3.3689      2.00000
     20       3.5656      2.00000
     21       3.6198      2.00000
     22       4.3470      2.00000
     23       4.7377      2.00000
     24       4.8002      2.00000
     25       5.2237      2.00000
     26       5.5029      2.00000
     27       9.3774      0.00000
     28      11.2320      0.00000
     29      12.9347      0.00000
     30      13.0409      0.00000
     31      16.6843      0.00000
     32      17.2858      0.00000
     33      17.6181      0.00000
     34      18.1433      0.00000
     35      18.4408      0.00000
     36      19.2537      0.00000
     37      19.5409      0.00000
     38      21.3867      0.00000
     39      23.3080      0.00000
     40      23.7840      0.00000
     41      24.1793      0.00000
     42      24.4176      0.00000
     43      24.7365      0.00000
     44      26.7571      0.00000
     45      26.7836      0.00000
     46      28.3498      0.00000
     47      28.8378      0.00000
     48      29.5367      0.00000
     49      30.2625      0.00000
     50      30.9485      0.00000
     51      32.0073      0.00000
     52      32.2366      0.00000
     53      32.4641      0.00000
     54      33.7896      0.00000
     55      33.8277      0.00000
     56      33.9891      0.00000
     57      34.7319      0.00000
     58      36.0894      0.00000
     59      36.4536      0.00000
     60      37.5070      0.00000
     61      38.0675      0.00000
     62      38.4127      0.00000
     63      38.9345      0.00000
     64      39.3802      0.00000
     65      40.0199      0.00000
     66      40.0700      0.00000
     67      40.1566      0.00000
     68      40.6776      0.00000
     69      41.4270      0.00000
     70      41.7657      0.00000
     71      42.5123      0.00000
     72      43.0904      0.00000
     73      43.9281      0.00000
     74      44.0222      0.00000
     75      44.9179      0.00000
     76      45.8571      0.00000
     77      46.0294      0.00000
     78      46.9401      0.00000
     79      47.5961      0.00000
     80      48.4957      0.00000
     81      48.5906      0.00000
     82      49.3304      0.00000
     83      49.5482      0.00000
     84      50.3510      0.00000
     85      51.2374      0.00000
     86      52.4436      0.00000
     87      52.4568      0.00000
     88      52.6800      0.00000
     89      53.6299      0.00000
     90      53.6528      0.00000
     91      54.2067      0.00000
     92      54.4283      0.00000
     93      55.0471      0.00000
     94      55.6774      0.00000
     95      56.0501      0.00000
     96      56.1167      0.00000
     97      56.4234      0.00000
     98      56.7062      0.00000
     99      57.8054      0.00000
    100      57.9628      0.00000
    101      58.8828      0.00000
    102      59.0715      0.00000
    103      59.6997      0.00000
    104      59.7268      0.00000
    105      60.4142      0.00000
    106      61.1861      0.00000
    107      61.6737      0.00000
    108      62.2225      0.00000
    109      62.5164      0.00000
    110      63.0469      0.00000
[...]
    127      71.3091      0.00000
    128      71.7491      0.00000

 k-point  59 :       0.5000    0.3333    0.5000
  band No.  band energies     occupation 
      1     -14.9343      2.00000
      2     -14.9343      2.00000
      3     -14.3275      2.00000
      4     -14.3275      2.00000
      5     -13.9727      2.00000
      6     -13.9727      2.00000
      7     -13.9191      2.00000
      8     -13.9191      2.00000
      9     -13.8651      2.00000
     10     -13.8651      2.00000
     11     -11.1386      2.00000
     12     -11.1386      2.00000
     13      -9.6165      2.00000
     14      -9.6165      2.00000
     15      -1.7333      2.00000
     16      -1.7333      2.00000
     17       1.0997      2.00000
     18       1.0997      2.00000
     19       2.4872      2.00000
     20       2.4872      2.00000
     21       4.3329      2.00000
     22       4.3329      2.00000
     23       4.9778      2.00000
     24       4.9778      2.00000
     25       5.1105      2.00000
     26       5.1105      2.00000
     27      11.0471      0.00000
     28      11.0471      0.00000
     29      14.7946      0.00000
     30      14.7946      0.00000
     31      16.8630      0.00000
     32      16.8630      0.00000
     33      17.2967      0.00000
     34      17.2967      0.00000
     35      18.9369      0.00000
     36      18.9369      0.00000
     37      20.2122      0.00000
     38      20.2122      0.00000
     39      21.9913      0.00000
     40      21.9913      0.00000
     41      24.4913      0.00000
     42      24.4913      0.00000
     43      25.4759      0.00000
     44      25.4759      0.00000
     45      28.5152      0.00000
     46      28.5152      0.00000
     47      30.3240      0.00000
     48      30.3240      0.00000
     49      31.5013      0.00000
     50      31.5013      0.00000
     51      32.2753      0.00000
     52      32.2753      0.00000
     53      33.9342      0.00000
     54      33.9342      0.00000
     55      34.6894      0.00000
     56      34.6894      0.00000
     57      36.6655      0.00000
     58      36.6655      0.00000
     59      37.5215      0.00000
     60      37.5215      0.00000
     61      38.4604      0.00000
     62      38.4604      0.00000
     63      39.4496      0.00000
     64      39.4496      0.00000
     65      40.9215      0.00000
     66      40.9215      0.00000
     67      41.3374      0.00000
     68      41.3374      0.00000
     69      42.9086      0.00000
     70      42.9086      0.00000
     71      43.0571      0.00000
     72      43.0571      0.00000
     73      45.5112      0.00000
     74      45.5112      0.00000
     75      45.7707      0.00000
     76      45.7707      0.00000
     77      46.5002      0.00000
     78      46.5002      0.00000
     79      46.9896      0.00000
     80      46.9896      0.00000
     81      48.5924      0.00000
     82      48.5924      0.00000
     83      49.2010      0.00000
     84      49.2010      0.00000
     85      50.0481      0.00000
     86      50.0481      0.00000
     87      51.7734      0.00000
     88      51.7734      0.00000
     89      52.5448      0.00000
     90      52.5448      0.00000
     91      53.2590      0.00000
     92      53.2590      0.00000
     93      53.6419      0.00000
     94      53.6419      0.00000
     95      53.7174      0.00000
     96      53.7174      0.00000
     97      55.0526      0.00000
     98      55.0526      0.00000
     99      55.8261      0.00000
    100      55.8261      0.00000
    101      56.1650      0.00000
    102      56.1650      0.00000
    103      57.4922      0.00000
    104      57.4922      0.00000
    105      59.9033      0.00000
    106      59.9033      0.00000
    107      60.9919      0.00000
    108      60.9919      0.00000
    109      61.7485      0.00000
    110      61.7485      0.00000
    111      62.8033      0.00000
    112      62.8033      0.00000
    113      63.7309      0.00000
    114      63.7309      0.00000
    115      64.9869      0.00000
    116      64.9869      0.00000
    117      66.3112      0.00000
    118      66.3112      0.00000
    119      67.3341      0.00000
    120      67.3344      0.00000
    121      68.5347      0.00000
    122      68.5353      0.00000
    123      69.4131      0.00000
    124      69.4184      0.00000
    125      70.4610      0.00000
    126      70.5597      0.00000
    127      72.0261      0.00000
    128      72.7830      0.00000

 k-point  60 :       0.5000    0.5000    0.5000
  band No.  band energies     occupation 
      1     -14.8778      2.00000
      2     -14.8778      2.00000
      3     -14.4158      2.00000
      4     -14.4158      2.00000
      5     -13.9703      2.00000
      6     -13.9703      2.00000
      7     -13.9195      2.00000
      8     -13.9195      2.00000
      9     -13.8679      2.00000
     10     -13.8679      2.00000
     11     -11.0128      2.00000
     12     -11.0128      2.00000
     13      -9.7037      2.00000
     14      -9.7037      2.00000
     15      -1.9111      2.00000
     16      -1.9111      2.00000
     17       1.0362      2.00000
     18       1.0362      2.00000
     19       3.4371      2.00000
     20       3.4371      2.00000
     21       3.5840      2.00000
     22       3.5840      2.00000
     23       5.0549      2.00000
     24       5.0549      2.00000
     25       5.1828      2.00000
     26       5.1828      2.00000
     27      10.7597      0.00000
     28      10.7597      0.00000
     29      14.8586      0.00000
     30      14.8586      0.00000
     31      16.9644      0.00000
     32      16.9644      0.00000
     33      17.0534      0.00000
     34      17.0534      0.00000
     35      19.0886      0.00000
     36      19.0886      0.00000
     37      21.2404      0.00000
     38      21.2404      0.00000
     39      21.7586      0.00000
     40      21.7586      0.00000
     41      23.6729      0.00000
     42      23.6729      0.00000
     43      25.1297      0.00000
     44      25.1297      0.00000
     45      28.2684      0.00000
     46      28.2684      0.00000
     47      30.5995      0.00000
     48      30.5995      0.00000
     49      32.2942      0.00000
     50      32.2942      0.00000
     51      32.3090      0.00000
     52      32.3090      0.00000
     53      33.7009      0.00000
     54      33.7009      0.00000
     55      33.8555      0.00000
     56      33.8555      0.00000
     57      37.6726      0.00000
     58      37.6726      0.00000
     59      37.8795      0.00000
     60      37.8795      0.00000
     61      38.4160      0.00000
     62      38.4160      0.00000
     63      39.9146      0.00000
     64      39.9146      0.00000
     65      40.3488      0.00000
     66      40.3488      0.00000
     67      40.8966      0.00000
     68      40.8966      0.00000
     69      42.3380      0.00000
     70      42.3380      0.00000
     71      42.8191      0.00000
     72      42.8191      0.00000
     73      45.9359      0.00000
     74      45.9359      0.00000
     75      46.6335      0.00000
     76      46.6335      0.00000
     77      46.9084      0.00000
     78      46.9084      0.00000
     79      46.9593      0.00000
     80      46.9593      0.00000
     81      47.5248      0.00000
     82      47.5248      0.00000
     83      49.2569      0.00000
     84      49.2569      0.00000
     85      50.9446      0.00000
     86      50.9446      0.00000
     87      52.2261      0.00000
     88      52.2261      0.00000
     89      52.7404      0.00000
     90      52.7404      0.00000
     91      53.1655      0.00000
     92      53.1655      0.00000
     93      53.4937      0.00000
     94      53.4937      0.00000
     95      54.2965      0.00000
     96      54.2965      0.00000
     97      54.3415      0.00000
     98      54.3415      0.00000
     99      55.0554      0.00000
    100      55.0554      0.00000
    101      55.8295      0.00000
    102      55.8295      0.00000
    103      57.9821      0.00000
    104      57.9821      0.00000
    105      58.4854      0.00000
    106      58.4854      0.00000
    107      60.8727      0.00000
    108      60.8727      0.00000
    109      61.4360      0.00000
    110      61.4360      0.00000
    111      61.9290      0.00000
    112      61.9290      0.00000
    113      64.0269      0.00000
    114      64.0269      0.00000
    115      64.3971      0.00000
    116      64.3971      0.00000
    117      67.5926      0.00000
    118      67.5926      0.00000
    119      67.9547      0.00000
    120      67.9549      0.00000
    121      68.5158      0.00000
    122      68.5161      0.00000
    123      68.5504      0.00000
    124      68.5504      0.00000
    125      70.9329      0.00000
    126      71.0190      0.00000
    127      72.8301      0.00000
    128      72.9846      0.00000


--------------------------------------------------------------------------------------------------------


 soft charge-density along one line, spin component            1
         0         1         2         3         4         5         6         7         8         9
 total charge-density along one line

 pseudopotential strength for first ion, spin component:            1
-15.826   0.000  -0.046   0.000   0.000  10.500   0.000   0.040
  0.000 -15.805   0.000  -0.008   0.000   0.000  10.482   0.000
 -0.046   0.000 -15.815   0.000   0.000   0.040   0.000  10.490
  0.000  -0.008   0.000 -15.805   0.000   0.000   0.007   0.000
  0.000   0.000   0.000   0.000 -15.851   0.000   0.000   0.000
 10.500   0.000   0.040   0.000   0.000  -4.325   0.000  -0.034
  0.000  10.482   0.000   0.007   0.000   0.000  -4.309   0.000
  0.040   0.000  10.490   0.000   0.000  -0.034   0.000  -4.314
  0.000   0.007   0.000  10.482   0.000   0.000  -0.004   0.000
  0.000   0.000   0.000   0.000  10.521   0.000   0.000   0.000
  0.001   0.000   0.002   0.000   0.000  -0.003   0.000   0.000
 -0.001   0.000  -0.001   0.000   0.000   0.001   0.000   0.001
  0.000   0.000   0.000   0.000   0.000   0.000   0.000   0.000
  0.000   0.000   0.000   0.000   0.000   0.000   0.000   0.000
  0.000   0.000   0.000   0.000   0.000   0.000   0.000   0.000
  0.000   0.000   0.000   0.000   0.000   0.000   0.000   0.000
  0.000   0.000   0.000   0.000   0.000   0.000   0.000   0.000
  0.000   0.000   0.000   0.000   0.000   0.000   0.000   0.000
 total augmentation occupancy for first ion, spin component:            1
  2.137   0.000  -0.077   0.000   0.000   0.226   0.000  -0.128   0.000   0.000   0.002   0.008   0.000   0.000   0.000   0.000
  0.000   2.119   0.000  -0.072   0.000   0.000   0.195   0.000  -0.119   0.000   0.000   0.000   0.000   0.000   0.000   0.000
 -0.077   0.000   2.099   0.000   0.000  -0.128   0.000   0.156   0.000   0.000   0.021   0.012   0.000   0.000   0.000   0.000
  0.000  -0.072   0.000   2.119   0.000   0.000  -0.119   0.000   0.195   0.000   0.000   0.000   0.000   0.000   0.000   0.000
  0.000   0.000   0.000   0.000   2.037   0.000   0.000   0.000   0.000   0.066   0.000   0.000   0.000   0.000   0.000   0.000
  0.226   0.000  -0.128   0.000   0.000   0.371   0.000  -0.212   0.000   0.000   0.014   0.007   0.000   0.000   0.000   0.000
  0.000   0.195   0.000  -0.119   0.000   0.000   0.320   0.000  -0.195   0.000   0.000   0.000   0.000   0.000   0.000   0.000
 -0.128   0.000   0.156   0.000   0.000  -0.212   0.000   0.247   0.000   0.000   0.045   0.012   0.000   0.000   0.000   0.000
  0.000  -0.119   0.000   0.195   0.000   0.000  -0.195   0.000   0.320   0.000   0.000   0.000   0.000   0.000   0.000   0.000
  0.000   0.000   0.000   0.000   0.066   0.000   0.000   0.000   0.000   0.115   0.000   0.000   0.000   0.000   0.000   0.000
  0.002   0.000   0.021   0.000   0.000   0.014   0.000   0.045   0.000   0.000   1.145   0.136   0.000   0.000   0.000   0.000
  0.008   0.000   0.012   0.000   0.000   0.007   0.000   0.012   0.000   0.000   0.136   0.033   0.000   0.000   0.000   0.000
  0.000   0.000   0.000   0.000   0.000   0.000   0.000   0.000   0.000   0.000   0.000   0.000   0.715   0.000   0.014  -0.679
  0.000   0.000   0.000   0.000   0.000   0.000   0.000   0.000   0.000   0.000   0.000   0.000   0.000   0.778   0.000   0.000
  0.000   0.000   0.000   0.000   0.000   0.000   0.000   0.000   0.000   0.000   0.000   0.000   0.014   0.000   0.715  -0.042
  0.000   0.000   0.000   0.000   0.000   0.000   0.000   0.000   0.000   0.000   0.000   0.000  -0.679   0.000  -0.042   0.826
  0.000   0.000   0.000   0.000   0.000   0.000   0.000   0.000   0.000   0.000   0.000   0.000   0.000  -0.795   0.000   0.000
  0.000   0.000   0.000   0.000   0.000   0.000   0.000   0.000   0.000   0.000   0.000   0.000  -0.042   0.000  -0.679   0.076


------------------------ aborting loop because EDIFF is reached ----------------------------------------





 total charge     

# of ion     s       p       d       tot
----------------------------------------
  1        0.882   1.068  10.377  12.327
  2        0.868   1.092  10.369  12.329
  3        1.584   3.516   0.000   5.100
  4        1.584   3.516   0.000   5.100
  5        1.587   3.534   0.000   5.121
  6        1.587   3.534   0.000   5.121
------------------------------------------------
tot        8.093  16.260  20.746  45.099



--------------------------------------------------------------------------------------------------------



  FREE ENERGIE OF THE ION-ELECTRON SYSTEM (eV)
  ---------------------------------------------------
  free  energy   TOTEN  =       -37.686901 eV

  energy  without entropy=      -37.686901  energy(sigma->0) =      -37.686901

    CHARGE:  cpu time    0.27: real time    0.27
    FORLOC:  cpu time    0.00: real time    0.00
    FORNL :  cpu time    5.42: real time    5.43
    STRESS:  cpu time    2.60: real time    2.61
    FORCOR:  cpu time    0.07: real time    0.07
    FORHAR:  cpu time    0.01: real time    0.02
    MIXING:  cpu time    0.00: real time    0.00

  FORCE on cell =-STRESS in cart. coord.  units (eV):
  Direction    XX          YY          ZZ          XY          YZ          ZX
  --------------------------------------------------------------------------------------
  Alpha Z   180.96687   180.96687   180.96687
  Ewald   -1603.52870 -1603.52870  -958.99796     0.00000     0.00000     0.00000
  Hartree   352.45723   352.45723   714.48134     0.00000     0.00000     0.00000
  E(xc)    -264.46120  -264.46120  -263.82352     0.00000     0.00000     0.00000
  Local     198.38078   198.38078  -788.46298     0.00000     0.00000     0.00000
  n-local    13.67956    12.83569    23.67070    -0.06215     0.33106     0.37252
  augment   398.16764   398.16764   394.79310    -0.00001     0.00000     0.00001
  Kinetic   724.72601   726.87343   699.61103    -1.31694    -2.31145    -2.55852
  Fock        0.00000     0.00000     0.00000     0.00000     0.00000     0.00000
  -------------------------------------------------------------------------------------
  Total       1.03997     1.03997     2.23859     0.00000     0.00000     0.00000
  in kB      22.99644    22.99644    49.50131     0.00000     0.00000     0.00000
  external pressure =       31.83 kB  Pullay stress =        0.00 kB


 VOLUME and BASIS-vectors are now :
 -----------------------------------------------------------------------------
  energy-cutoff  :      400.00
  volume of cell :       72.46
      direct lattice vectors                 reciprocal lattice vectors
     4.760806825  0.000000000  0.000000000     0.210048430  0.000000000  0.000000000
     0.000000000  4.760806825  0.000000000     0.000000000  0.210048430  0.000000000
     0.000000000  0.000000000  3.196746585     0.000000000  0.000000000  0.312818040

  length of vectors
     4.760806825  4.760806825  3.196746585     0.210048430  0.210048430  0.312818040


 FORCES acting on ions
    electron-ion (+dipol)            ewald-force                    non-local-force                 convergence-correction
 -----------------------------------------------------------------------------------------------
   0.139E-12 0.166E-12 -.451E-13   0.185E-12 0.131E-12 -.155E-13   0.000E+00 0.000E+00 0.000E+00   -.157E-13 -.551E-13 -.661E-13
   0.293E-11 -.175E-11 -.257E-11   0.711E-13 -.188E-12 -.158E-13   0.000E+00 0.000E+00 0.000E+00   -.134E-12 -.241E-13 -.634E-13
   0.364E+02 0.364E+02 -.555E-07   -.388E+02 -.388E+02 0.266E-14   0.237E+01 0.237E+01 0.173E-17   -.922E-03 -.922E-03 0.523E-11
   -.364E+02 -.364E+02 0.555E-07   0.388E+02 0.388E+02 0.264E-14   -.237E+01 -.237E+01 -.173E-17   0.922E-03 0.922E-03 -.526E-11
   0.364E+02 -.364E+02 -.945E-11   -.388E+02 0.388E+02 0.671E-14   0.237E+01 -.237E+01 0.347E-17   -.922E-03 0.922E-03 0.863E-14
   -.364E+02 0.364E+02 -.148E-11   0.388E+02 -.388E+02 0.666E-14   -.237E+01 0.237E+01 -.347E-17   0.922E-03 -.922E-03 -.670E-14
 -----------------------------------------------------------------------------------------------
   0.117E-11 0.166E-11 -.784E-11   0.497E-13 -.711E-14 -.126E-13   0.000E+00 0.888E-15 0.000E+00   -.143E-12 -.644E-13 -.152E-12


 POSITION                                       TOTAL-FORCE (eV/Angst)
 -----------------------------------------------------------------------------------
      0.00000      0.00000      0.00000         0.000000      0.000000      0.000000
      2.38040      2.38040      1.59837         0.000000      0.000000      0.000000
      1.45677      1.45677      0.00000        -0.060932     -0.060932      0.000000
      3.30404      3.30404      0.00000         0.060932      0.060932      0.000000
      3.83717      0.92364      1.59837        -0.060932      0.060932      0.000000
      0.92364      3.83717      1.59837         0.060932     -0.060932      0.000000
 -----------------------------------------------------------------------------------
    total drift:                                0.000000      0.000000      0.000000


--------------------------------------------------------------------------------------------------------


    POTLOK:  cpu time    0.13: real time    0.13


--------------------------------------------------------------------------------------------------------


 writing wavefunctions
     LOOP+:  cpu time  256.30: real time  260.20
    4ORBIT:  cpu time    0.00: real time    0.00



 total charge     

# of ion     s       p       d       tot
----------------------------------------
  1        0.882   1.068  10.377  12.327
  2        0.868   1.092  10.369  12.329
  3        1.584   3.516   0.000   5.100
  4        1.584   3.516   0.000   5.100
  5        1.587   3.534   0.000   5.121
  6        1.587   3.534   0.000   5.121
------------------------------------------------
tot        8.093  16.260  20.746  45.099

 BZINTS: Fermi energy:  6.077873; 52.000000 electrons
         Band energy:-298.651627;  BLOECHL correction:  0.000000

 total amount of memory used by VASP on root node  66685. kBytes
========================================================================

   base      :    30000. kBytes
   nonl-proj :     5907. kBytes
   fftplans  :     3841. kBytes
   grid      :     4419. kBytes
   one-center:       31. kBytes
   wavefun   :    22487. kBytes

  
  
 General timing and accounting informations for this job:
 ========================================================
  
                  Total CPU time used (sec):      262.320
                            User time (sec):      235.087
                          System time (sec):       27.234
                         Elapsed time (sec):      267.229
  
                   Maximum memory used (kb):           0.
                   Average memory used (kb):           0.
  
                          Minor page faults:      3388432
                          Major page faults:            0
                 Voluntary context switches:          742
