 vasp.5.2.2 15Apr09 complex 
 executed on             LinuxPgi date 2010.01.02  01:21:00
 running on    8 nodes
 distr:  one band on    1 nodes,    8 groups


--------------------------------------------------------------------------------------------------------


 INCAR:
 POTCAR:   PAW_PBE Sn_d 06Sep2000                 
 POTCAR:   PAW_PBE O 08Apr2002                    
 POTCAR:   PAW_PBE Sn_d 06Sep2000                 
   VRHFIN =Sn: s2p2                                                             
   LEXCH  = PE                                                                  
   EATOM  =  1893.0782 eV,  139.1373 Ry                                         
                                                                                
   TITEL  = PAW_PBE Sn_d 06Sep2000                                              
   LULTRA =        F    use ultrasoft PP ?                                      
   IUNSCR =        1    unscreen: 0-lin 1-nonlin 2-no                           
   RPACOR =    2.300    partial core radius                                     
   POMASS =  118.710; ZVAL   =   14.000    mass and valenz                      
   RCORE  =    2.500    outmost cutoff radius                                   
   RWIGS  =    2.960; RWIGS  =    1.566    wigner-seitz radius (au A)           
   ENMAX  =  241.090; ENMIN  =  180.817 eV                                      
   ICORE  =        3    local potential                                         
   LCOR   =        T    correct aug charges                                     
   LPAW   =        T    paw PP                                                  
   EAUG   =  439.825                                                            
   DEXC   =    -.001                                                            
   RMAX   =    2.969    core radius for proj-oper                               
   RAUG   =    1.300    factor for augmentation sphere                          
   RDEP   =    2.659    radius for radial grids                                 
   QCUT   =   -4.209; QGAM   =    8.419    optimization parameters              
                                                                                
   Description                                                                  
     l     E      TYP  RCUT    TYP  RCUT                                        
     2   .000     23  2.500                                                     
     2  -.400     23  2.500                                                     
     0   .000     23  2.500                                                     
     0  1.000     23  2.500                                                     
     1   .000     23  2.500                                                     
     1   .000     23  2.500                                                     
     3  -.100      7  2.500                                                     
  local pseudopotential read in
  partial core-charges read in
  atomic valenz-charges read in
  non local Contribution for L=            2  read in
    real space projection operators read in
  non local Contribution for L=            2  read in
    real space projection operators read in
  non local Contribution for L=            0  read in
    real space projection operators read in
  non local Contribution for L=            0  read in
    real space projection operators read in
  non local Contribution for L=            1  read in
    real space projection operators read in
  non local Contribution for L=            1  read in
    real space projection operators read in
    PAW grid and wavefunctions read in

   number of l-projection  operators is LMAX  =            6
   number of lm-projection operators is LMMAX =           18

 POTCAR:   PAW_PBE O 08Apr2002                    
   VRHFIN =O: s2p4                                                              
   LEXCH  = PE                                                                  
   EATOM  =   432.3788 eV,   31.7789 Ry                                         
                                                                                
   TITEL  = PAW_PBE O 08Apr2002                                                 
   LULTRA =        F    use ultrasoft PP ?                                      
   IUNSCR =        0    unscreen: 0-lin 1-nonlin 2-no                           
   RPACOR =     .000    partial core radius                                     
   POMASS =   16.000; ZVAL   =    6.000    mass and valenz                      
   RCORE  =    1.520    outmost cutoff radius                                   
   RWIGS  =    1.550; RWIGS  =     .820    wigner-seitz radius (au A)           
   ENMAX  =  400.000; ENMIN  =  300.000 eV                                      
   ICORE  =        2    local potential                                         
   LCOR   =        T    correct aug charges                                     
   LPAW   =        T    paw PP                                                  
   EAUG   =  605.392                                                            
   DEXC   =     .000                                                            
   RMAX   =    2.264    core radius for proj-oper                               
   RAUG   =    1.300    factor for augmentation sphere                          
   RDEP   =    1.550    radius for radial grids                                 
   QCUT   =   -5.520; QGAM   =   11.041    optimization parameters              
                                                                                
   Description                                                                  
     l     E      TYP  RCUT    TYP  RCUT                                        
     0   .000     23  1.200                                                     
     0  -.700     23  1.200                                                     
     1   .000     23  1.520                                                     
     1   .600     23  1.520                                                     
     2   .000      7  1.500                                                     
  local pseudopotential read in
  atomic valenz-charges read in
  non local Contribution for L=            0  read in
    real space projection operators read in
  non local Contribution for L=            0  read in
    real space projection operators read in
  non local Contribution for L=            1  read in
    real space projection operators read in
  non local Contribution for L=            1  read in
    real space projection operators read in
    PAW grid and wavefunctions read in

   number of l-projection  operators is LMAX  =            4
   number of lm-projection operators is LMMAX =            8

 PAW_PBE Sn_d 06Sep2000                 :
 energy of atom  1       EATOM=-1893.0782
 kinetic energy error for atom=    0.0047 (will be added to EATOM!!)
 PAW_PBE O 08Apr2002                    :
 energy of atom  2       EATOM= -432.3788
 kinetic energy error for atom=    0.1156 (will be added to EATOM!!)


 POSCAR:  POSCAR by pos_vscal                    
  positions in direct lattice
  velocities in cartesian coordinates
 exchange correlation table for  LEXCH =        8
   RHO(1)=    0.500       N(1)  =     2000
   RHO(2)=  100.500       N(2)  =     4000



--------------------------------------------------------------------------------------------------------


 ion  position               nearest neighbor table
   1  0.000  0.000  0.000 -   3 2.060   4 2.060   5 2.064   6 2.064   5 2.064   6 2.064   2 3.727   2 3.727
                              2 3.727   2 3.727   2 3.727   2 3.727   2 3.727   2 3.727
   2  0.500  0.500  0.500 -   5 2.060   6 2.060   3 2.064   4 2.064   3 2.064   4 2.064   1 3.727   1 3.727
                              1 3.727   1 3.727   1 3.727   1 3.727   1 3.727   1 3.727
   3  0.306  0.306  0.000 -   1 2.060   2 2.064   2 2.064
   4  0.694  0.694  0.000 -   1 2.060   2 2.064   2 2.064
   5  0.806  0.194  0.500 -   2 2.060   1 2.064   1 2.064
   6  0.194  0.806  0.500 -   2 2.060   1 2.064   1 2.064

  LATTYP: Found a simple tetragonal cell.
 ALAT       =     4.7608068246
 C/A-ratio  =     0.6714716020
  
  Lattice vectors:
  
 A1 = (   4.7608068246,   0.0000000000,   0.0000000000)
 A2 = (   0.0000000000,   4.7608068246,   0.0000000000)
 A3 = (   0.0000000000,   0.0000000000,   3.1967465854)
 Subroutine PRICEL returns:
 Original cell was already a primitive cell.
 

Analysis of symmetry for initial positions (statically):

 Routine SETGRP: Setting up the symmetry group for a 
 simple tetragonal supercell.


 Subroutine GETGRP returns: Found 16 space group operations
 (whereof  8 operations were pure point group operations)
 out of a pool of 16 trial point group operations.


The static configuration has the point symmetry D_2h.
 The point group associated with its full space group is D_4h.

Analysis of symmetry for dynamics (positions and initial velocities):

 Subroutine DYNSYM returns: Found 16 space group operations
 (whereof  8 operations were pure point group operations)
 out of a pool of 16 trial space group operations
 (whereof  8 operations were pure point group operations)
 and found also     1 'primitive' translations


The dynamic configuration has the point symmetry D_2h.
 The point group associated with its full space group is D_4h.


 KPOINTS: Automatic generation                    

Automatic generation of k-mesh.
 
 Subroutine IBZKPT returns following result:
 ===========================================
 
 Found     60 irreducible k-points:
 
 Following reciprocal coordinates:
            Coordinates               Weight
  0.000000  0.000000  0.000000      1.000000
  0.166667  0.000000  0.000000      4.000000
  0.333333  0.000000  0.000000      4.000000
  0.500000  0.000000  0.000000      2.000000
  0.166667  0.166667  0.000000      4.000000
  0.333333  0.166667  0.000000      8.000000
  0.500000  0.166667  0.000000      4.000000
  0.333333  0.333333  0.000000      4.000000
  0.500000  0.333333  0.000000      4.000000
  0.500000  0.500000  0.000000      1.000000
  0.000000  0.000000  0.100000      2.000000
  0.166667  0.000000  0.100000      8.000000
  0.333333  0.000000  0.100000      8.000000
  0.500000  0.000000  0.100000      4.000000
  0.166667  0.166667  0.100000      8.000000
  0.333333  0.166667  0.100000     16.000000
  0.500000  0.166667  0.100000      8.000000
  0.333333  0.333333  0.100000      8.000000
  0.500000  0.333333  0.100000      8.000000
  0.500000  0.500000  0.100000      2.000000
  0.000000  0.000000  0.200000      2.000000
  0.166667  0.000000  0.200000      8.000000
  0.333333  0.000000  0.200000      8.000000
  0.500000  0.000000  0.200000      4.000000
  0.166667  0.166667  0.200000      8.000000
  0.333333  0.166667  0.200000     16.000000
  0.500000  0.166667  0.200000      8.000000
  0.333333  0.333333  0.200000      8.000000
  0.500000  0.333333  0.200000      8.000000
  0.500000  0.500000  0.200000      2.000000
  0.000000  0.000000  0.300000      2.000000
  0.166667  0.000000  0.300000      8.000000
  0.333333  0.000000  0.300000      8.000000
  0.500000  0.000000  0.300000      4.000000
  0.166667  0.166667  0.300000      8.000000
  0.333333  0.166667  0.300000     16.000000
  0.500000  0.166667  0.300000      8.000000
  0.333333  0.333333  0.300000      8.000000
  0.500000  0.333333  0.300000      8.000000
  0.500000  0.500000  0.300000      2.000000
  0.000000  0.000000  0.400000      2.000000
  0.166667  0.000000  0.400000      8.000000
  0.333333  0.000000  0.400000      8.000000
  0.500000  0.000000  0.400000      4.000000
  0.166667  0.166667  0.400000      8.000000
  0.333333  0.166667  0.400000     16.000000
  0.500000  0.166667  0.400000      8.000000
  0.333333  0.333333  0.400000      8.000000
  0.500000  0.333333  0.400000      8.000000
  0.500000  0.500000  0.400000      2.000000
  0.000000  0.000000  0.500000      1.000000
  0.166667  0.000000  0.500000      4.000000
  0.333333  0.000000  0.500000      4.000000
  0.500000  0.000000  0.500000      2.000000
  0.166667  0.166667  0.500000      4.000000
  0.333333  0.166667  0.500000      8.000000
  0.500000  0.166667  0.500000      4.000000
  0.333333  0.333333  0.500000      4.000000
  0.500000  0.333333  0.500000      4.000000
  0.500000  0.500000  0.500000      1.000000
 
 Following cartesian coordinates:
            Coordinates               Weight
  0.000000  0.000000  0.000000      1.000000
  0.166789  0.000000  0.000000      4.000000
  0.333577  0.000000  0.000000      4.000000
  0.500366  0.000000  0.000000      2.000000
  0.166789  0.166789  0.000000      4.000000
  0.333577  0.166789  0.000000      8.000000
  0.500366  0.166789  0.000000      4.000000
  0.333577  0.333577  0.000000      4.000000
  0.500366  0.333577  0.000000      4.000000
  0.500366  0.500366  0.000000      1.000000
  0.000000  0.000000  0.149036      2.000000
  0.166789  0.000000  0.149036      8.000000
  0.333577  0.000000  0.149036      8.000000
  0.500366  0.000000  0.149036      4.000000
  0.166789  0.166789  0.149036      8.000000
  0.333577  0.166789  0.149036     16.000000
  0.500366  0.166789  0.149036      8.000000
  0.333577  0.333577  0.149036      8.000000
  0.500366  0.333577  0.149036      8.000000
  0.500366  0.500366  0.149036      2.000000
  0.000000  0.000000  0.298071      2.000000
  0.166789  0.000000  0.298071      8.000000
  0.333577  0.000000  0.298071      8.000000
  0.500366  0.000000  0.298071      4.000000
  0.166789  0.166789  0.298071      8.000000
  0.333577  0.166789  0.298071     16.000000
  0.500366  0.166789  0.298071      8.000000
  0.333577  0.333577  0.298071      8.000000
  0.500366  0.333577  0.298071      8.000000
  0.500366  0.500366  0.298071      2.000000
  0.000000  0.000000  0.447107      2.000000
  0.166789  0.000000  0.447107      8.000000
  0.333577  0.000000  0.447107      8.000000
  0.500366  0.000000  0.447107      4.000000
  0.166789  0.166789  0.447107      8.000000
  0.333577  0.166789  0.447107     16.000000
  0.500366  0.166789  0.447107      8.000000
  0.333577  0.333577  0.447107      8.000000
  0.500366  0.333577  0.447107      8.000000
  0.500366  0.500366  0.447107      2.000000
  0.000000  0.000000  0.596142      2.000000
  0.166789  0.000000  0.596142      8.000000
  0.333577  0.000000  0.596142      8.000000
  0.500366  0.000000  0.596142      4.000000
  0.166789  0.166789  0.596142      8.000000
  0.333577  0.166789  0.596142     16.000000
  0.500366  0.166789  0.596142      8.000000
  0.333577  0.333577  0.596142      8.000000
  0.500366  0.333577  0.596142      8.000000
  0.500366  0.500366  0.596142      2.000000
  0.000000  0.000000  0.745178      1.000000
  0.166789  0.000000  0.745178      4.000000
  0.333577  0.000000  0.745178      4.000000
  0.500366  0.000000  0.745178      2.000000
  0.166789  0.166789  0.745178      4.000000
  0.333577  0.166789  0.745178      8.000000
  0.500366  0.166789  0.745178      4.000000
  0.333577  0.333577  0.745178      4.000000
  0.500366  0.333577  0.745178      4.000000
  0.500366  0.500366  0.745178      1.000000
 
 
 Subroutine IBZKPT_HF returns following result:
 ==============================================
 
 Found    360 k-points in 1st BZ
 the following    360 k-points will be used (e.g. in the exchange kernel)
 Following reciprocal coordinates:   # in IRBZ
  0.000000  0.000000  0.000000       1
  0.166667  0.000000  0.000000       2
  0.333333  0.000000  0.000000       3
  0.500000  0.000000  0.000000       4
  0.166667  0.166667  0.000000       5
  0.333333  0.166667  0.000000       6
  0.500000  0.166667  0.000000       7
  0.333333  0.333333  0.000000       8
  0.500000  0.333333  0.000000       9
  0.500000  0.500000  0.000000      10
  0.000000  0.000000  0.100000      11
  0.166667  0.000000  0.100000      12
  0.333333  0.000000  0.100000      13
  0.500000  0.000000  0.100000      14
  0.166667  0.166667  0.100000      15
  0.333333  0.166667  0.100000      16
  0.500000  0.166667  0.100000      17
  0.333333  0.333333  0.100000      18
  0.500000  0.333333  0.100000      19
  0.500000  0.500000  0.100000      20
  0.000000  0.000000  0.200000      21
  0.166667  0.000000  0.200000      22
  0.333333  0.000000  0.200000      23
  0.500000  0.000000  0.200000      24
  0.166667  0.166667  0.200000      25
  0.333333  0.166667  0.200000      26
  0.500000  0.166667  0.200000      27
  0.333333  0.333333  0.200000      28
  0.500000  0.333333  0.200000      29
  0.500000  0.500000  0.200000      30
  0.000000  0.000000  0.300000      31
  0.166667  0.000000  0.300000      32
  0.333333  0.000000  0.300000      33
  0.500000  0.000000  0.300000      34
  0.166667  0.166667  0.300000      35
  0.333333  0.166667  0.300000      36
  0.500000  0.166667  0.300000      37
  0.333333  0.333333  0.300000      38
  0.500000  0.333333  0.300000      39
  0.500000  0.500000  0.300000      40
  0.000000  0.000000  0.400000      41
  0.166667  0.000000  0.400000      42
  0.333333  0.000000  0.400000      43
  0.500000  0.000000  0.400000      44
  0.166667  0.166667  0.400000      45
  0.333333  0.166667  0.400000      46
  0.500000  0.166667  0.400000      47
  0.333333  0.333333  0.400000      48
  0.500000  0.333333  0.400000      49
  0.500000  0.500000  0.400000      50
  0.000000  0.000000  0.500000      51
  0.166667  0.000000  0.500000      52
  0.333333  0.000000  0.500000      53
  0.500000  0.000000  0.500000      54
  0.166667  0.166667  0.500000      55
  0.333333  0.166667  0.500000      56
  0.500000  0.166667  0.500000      57
  0.333333  0.333333  0.500000      58
  0.500000  0.333333  0.500000      59
  0.500000  0.500000  0.500000      60
 -0.166667  0.000000  0.000000       2
  0.000000  0.166667  0.000000       2
  0.000000 -0.166667  0.000000       2
 -0.333333  0.000000  0.000000       3
  0.000000  0.333333  0.000000       3
  0.000000 -0.333333  0.000000       3
  0.000000  0.500000  0.000000       4
 -0.166667 -0.166667  0.000000       5
 -0.166667  0.166667  0.000000       5
  0.166667 -0.166667  0.000000       5
 -0.333333 -0.166667  0.000000       6
  0.166667  0.333333  0.000000       6
 -0.166667 -0.333333  0.000000       6
 -0.166667  0.333333  0.000000       6
  0.166667 -0.333333  0.000000       6
 -0.333333  0.166667  0.000000       6
  0.333333 -0.166667  0.000000       6
 -0.500000 -0.166667  0.000000       7
  0.166667  0.500000  0.000000       7
 -0.166667 -0.500000  0.000000       7
 -0.333333 -0.333333  0.000000       8
 -0.333333  0.333333  0.000000       8
  0.333333 -0.333333  0.000000       8
 -0.500000 -0.333333  0.000000       9
  0.333333  0.500000  0.000000       9
 -0.333333 -0.500000  0.000000       9
  0.000000  0.000000 -0.100000      11
 -0.166667  0.000000 -0.100000      12
 -0.166667  0.000000  0.100000      12
  0.166667  0.000000 -0.100000      12
  0.000000  0.166667 -0.100000      12
  0.000000 -0.166667  0.100000      12
  0.000000 -0.166667 -0.100000      12
  0.000000  0.166667  0.100000      12
 -0.333333  0.000000 -0.100000      13
 -0.333333  0.000000  0.100000      13
  0.333333  0.000000 -0.100000      13
  0.000000  0.333333 -0.100000      13
  0.000000 -0.333333  0.100000      13
  0.000000 -0.333333 -0.100000      13
  0.000000  0.333333  0.100000      13
 -0.500000  0.000000 -0.100000      14
  0.000000  0.500000 -0.100000      14
  0.000000 -0.500000  0.100000      14
 -0.166667 -0.166667 -0.100000      15
 -0.166667 -0.166667  0.100000      15
  0.166667  0.166667 -0.100000      15
 -0.166667  0.166667  0.100000      15
  0.166667 -0.166667 -0.100000      15
  0.166667 -0.166667  0.100000      15
 -0.166667  0.166667 -0.100000      15
 -0.333333 -0.166667 -0.100000      16
 -0.333333 -0.166667  0.100000      16
  0.333333  0.166667 -0.100000      16
  0.166667  0.333333 -0.100000      16
 -0.166667 -0.333333  0.100000      16
 -0.166667 -0.333333 -0.100000      16
  0.166667  0.333333  0.100000      16
 -0.166667  0.333333  0.100000      16
  0.166667 -0.333333 -0.100000      16
  0.166667 -0.333333  0.100000      16
 -0.166667  0.333333 -0.100000      16
 -0.333333  0.166667 -0.100000      16
  0.333333 -0.166667  0.100000      16
  0.333333 -0.166667 -0.100000      16
 -0.333333  0.166667  0.100000      16
 -0.500000 -0.166667 -0.100000      17
 -0.500000 -0.166667  0.100000      17
  0.500000  0.166667 -0.100000      17
  0.166667  0.500000 -0.100000      17
 -0.166667 -0.500000  0.100000      17
 -0.166667 -0.500000 -0.100000      17
  0.166667  0.500000  0.100000      17
 -0.333333 -0.333333 -0.100000      18
 -0.333333 -0.333333  0.100000      18
  0.333333  0.333333 -0.100000      18
 -0.333333  0.333333  0.100000      18
  0.333333 -0.333333 -0.100000      18
  0.333333 -0.333333  0.100000      18
 -0.333333  0.333333 -0.100000      18
 -0.500000 -0.333333 -0.100000      19
 -0.500000 -0.333333  0.100000      19
  0.500000  0.333333 -0.100000      19
  0.333333  0.500000 -0.100000      19
 -0.333333 -0.500000  0.100000      19
 -0.333333 -0.500000 -0.100000      19
  0.333333  0.500000  0.100000      19
 -0.500000 -0.500000 -0.100000      20
  0.000000  0.000000 -0.200000      21
 -0.166667  0.000000 -0.200000      22
 -0.166667  0.000000  0.200000      22
  0.166667  0.000000 -0.200000      22
  0.000000  0.166667 -0.200000      22
  0.000000 -0.166667  0.200000      22
  0.000000 -0.166667 -0.200000      22
  0.000000  0.166667  0.200000      22
 -0.333333  0.000000 -0.200000      23
 -0.333333  0.000000  0.200000      23
  0.333333  0.000000 -0.200000      23
  0.000000  0.333333 -0.200000      23
  0.000000 -0.333333  0.200000      23
  0.000000 -0.333333 -0.200000      23
  0.000000  0.333333  0.200000      23
 -0.500000  0.000000 -0.200000      24
  0.000000  0.500000 -0.200000      24
  0.000000 -0.500000  0.200000      24
 -0.166667 -0.166667 -0.200000      25
 -0.166667 -0.166667  0.200000      25
  0.166667  0.166667 -0.200000      25
 -0.166667  0.166667  0.200000      25
  0.166667 -0.166667 -0.200000      25
  0.166667 -0.166667  0.200000      25
 -0.166667  0.166667 -0.200000      25
 -0.333333 -0.166667 -0.200000      26
 -0.333333 -0.166667  0.200000      26
  0.333333  0.166667 -0.200000      26
  0.166667  0.333333 -0.200000      26
 -0.166667 -0.333333  0.200000      26
 -0.166667 -0.333333 -0.200000      26
  0.166667  0.333333  0.200000      26
 -0.166667  0.333333  0.200000      26
  0.166667 -0.333333 -0.200000      26
  0.166667 -0.333333  0.200000      26
 -0.166667  0.333333 -0.200000      26
 -0.333333  0.166667 -0.200000      26
  0.333333 -0.166667  0.200000      26
  0.333333 -0.166667 -0.200000      26
 -0.333333  0.166667  0.200000      26
 -0.500000 -0.166667 -0.200000      27
 -0.500000 -0.166667  0.200000      27
  0.500000  0.166667 -0.200000      27
  0.166667  0.500000 -0.200000      27
 -0.166667 -0.500000  0.200000      27
 -0.166667 -0.500000 -0.200000      27
  0.166667  0.500000  0.200000      27
 -0.333333 -0.333333 -0.200000      28
 -0.333333 -0.333333  0.200000      28
  0.333333  0.333333 -0.200000      28
 -0.333333  0.333333  0.200000      28
  0.333333 -0.333333 -0.200000      28
  0.333333 -0.333333  0.200000      28
 -0.333333  0.333333 -0.200000      28
 -0.500000 -0.333333 -0.200000      29
 -0.500000 -0.333333  0.200000      29
  0.500000  0.333333 -0.200000      29
  0.333333  0.500000 -0.200000      29
 -0.333333 -0.500000  0.200000      29
 -0.333333 -0.500000 -0.200000      29
  0.333333  0.500000  0.200000      29
 -0.500000 -0.500000 -0.200000      30
  0.000000  0.000000 -0.300000      31
 -0.166667  0.000000 -0.300000      32
 -0.166667  0.000000  0.300000      32
  0.166667  0.000000 -0.300000      32
  0.000000  0.166667 -0.300000      32
  0.000000 -0.166667  0.300000      32
  0.000000 -0.166667 -0.300000      32
  0.000000  0.166667  0.300000      32
 -0.333333  0.000000 -0.300000      33
 -0.333333  0.000000  0.300000      33
  0.333333  0.000000 -0.300000      33
  0.000000  0.333333 -0.300000      33
  0.000000 -0.333333  0.300000      33
  0.000000 -0.333333 -0.300000      33
  0.000000  0.333333  0.300000      33
 -0.500000  0.000000 -0.300000      34
  0.000000  0.500000 -0.300000      34
  0.000000 -0.500000  0.300000      34
 -0.166667 -0.166667 -0.300000      35
 -0.166667 -0.166667  0.300000      35
  0.166667  0.166667 -0.300000      35
 -0.166667  0.166667  0.300000      35
  0.166667 -0.166667 -0.300000      35
  0.166667 -0.166667  0.300000      35
 -0.166667  0.166667 -0.300000      35
 -0.333333 -0.166667 -0.300000      36
 -0.333333 -0.166667  0.300000      36
  0.333333  0.166667 -0.300000      36
  0.166667  0.333333 -0.300000      36
 -0.166667 -0.333333  0.300000      36
 -0.166667 -0.333333 -0.300000      36
  0.166667  0.333333  0.300000      36
 -0.166667  0.333333  0.300000      36
  0.166667 -0.333333 -0.300000      36
  0.166667 -0.333333  0.300000      36
 -0.166667  0.333333 -0.300000      36
 -0.333333  0.166667 -0.300000      36
  0.333333 -0.166667  0.300000      36
  0.333333 -0.166667 -0.300000      36
 -0.333333  0.166667  0.300000      36
 -0.500000 -0.166667 -0.300000      37
 -0.500000 -0.166667  0.300000      37
  0.500000  0.166667 -0.300000      37
  0.166667  0.500000 -0.300000      37
 -0.166667 -0.500000  0.300000      37
 -0.166667 -0.500000 -0.300000      37
  0.166667  0.500000  0.300000      37
 -0.333333 -0.333333 -0.300000      38
 -0.333333 -0.333333  0.300000      38
  0.333333  0.333333 -0.300000      38
 -0.333333  0.333333  0.300000      38
  0.333333 -0.333333 -0.300000      38
  0.333333 -0.333333  0.300000      38
 -0.333333  0.333333 -0.300000      38
 -0.500000 -0.333333 -0.300000      39
 -0.500000 -0.333333  0.300000      39
  0.500000  0.333333 -0.300000      39
  0.333333  0.500000 -0.300000      39
 -0.333333 -0.500000  0.300000      39
 -0.333333 -0.500000 -0.300000      39
  0.333333  0.500000  0.300000      39
 -0.500000 -0.500000 -0.300000      40
  0.000000  0.000000 -0.400000      41
 -0.166667  0.000000 -0.400000      42
 -0.166667  0.000000  0.400000      42
  0.166667  0.000000 -0.400000      42
  0.000000  0.166667 -0.400000      42
  0.000000 -0.166667  0.400000      42
  0.000000 -0.166667 -0.400000      42
  0.000000  0.166667  0.400000      42
 -0.333333  0.000000 -0.400000      43
 -0.333333  0.000000  0.400000      43
  0.333333  0.000000 -0.400000      43
  0.000000  0.333333 -0.400000      43
  0.000000 -0.333333  0.400000      43
  0.000000 -0.333333 -0.400000      43
  0.000000  0.333333  0.400000      43
 -0.500000  0.000000 -0.400000      44
  0.000000  0.500000 -0.400000      44
  0.000000 -0.500000  0.400000      44
 -0.166667 -0.166667 -0.400000      45
 -0.166667 -0.166667  0.400000      45
  0.166667  0.166667 -0.400000      45
 -0.166667  0.166667  0.400000      45
  0.166667 -0.166667 -0.400000      45
  0.166667 -0.166667  0.400000      45
 -0.166667  0.166667 -0.400000      45
 -0.333333 -0.166667 -0.400000      46
 -0.333333 -0.166667  0.400000      46
  0.333333  0.166667 -0.400000      46
  0.166667  0.333333 -0.400000      46
 -0.166667 -0.333333  0.400000      46
 -0.166667 -0.333333 -0.400000      46
  0.166667  0.333333  0.400000      46
 -0.166667  0.333333  0.400000      46
  0.166667 -0.333333 -0.400000      46
  0.166667 -0.333333  0.400000      46
 -0.166667  0.333333 -0.400000      46
 -0.333333  0.166667 -0.400000      46
  0.333333 -0.166667  0.400000      46
  0.333333 -0.166667 -0.400000      46
 -0.333333  0.166667  0.400000      46
 -0.500000 -0.166667 -0.400000      47
 -0.500000 -0.166667  0.400000      47
  0.500000  0.166667 -0.400000      47
  0.166667  0.500000 -0.400000      47
 -0.166667 -0.500000  0.400000      47
 -0.166667 -0.500000 -0.400000      47
  0.166667  0.500000  0.400000      47
 -0.333333 -0.333333 -0.400000      48
 -0.333333 -0.333333  0.400000      48
  0.333333  0.333333 -0.400000      48
 -0.333333  0.333333  0.400000      48
  0.333333 -0.333333 -0.400000      48
  0.333333 -0.333333  0.400000      48
 -0.333333  0.333333 -0.400000      48
 -0.500000 -0.333333 -0.400000      49
 -0.500000 -0.333333  0.400000      49
  0.500000  0.333333 -0.400000      49
  0.333333  0.500000 -0.400000      49
 -0.333333 -0.500000  0.400000      49
 -0.333333 -0.500000 -0.400000      49
  0.333333  0.500000  0.400000      49
 -0.500000 -0.500000 -0.400000      50
 -0.166667  0.000000 -0.500000      52
  0.000000  0.166667 -0.500000      52
  0.000000 -0.166667  0.500000      52
 -0.333333  0.000000 -0.500000      53
  0.000000  0.333333 -0.500000      53
  0.000000 -0.333333  0.500000      53
  0.000000  0.500000 -0.500000      54
 -0.166667 -0.166667 -0.500000      55
 -0.166667  0.166667  0.500000      55
  0.166667 -0.166667 -0.500000      55
 -0.333333 -0.166667 -0.500000      56
  0.166667  0.333333 -0.500000      56
 -0.166667 -0.333333  0.500000      56
 -0.166667  0.333333  0.500000      56
  0.166667 -0.333333 -0.500000      56
 -0.333333  0.166667 -0.500000      56
  0.333333 -0.166667  0.500000      56
 -0.500000 -0.166667 -0.500000      57
  0.166667  0.500000 -0.500000      57
 -0.166667 -0.500000  0.500000      57
 -0.333333 -0.333333 -0.500000      58
 -0.333333  0.333333  0.500000      58
  0.333333 -0.333333 -0.500000      58
 -0.500000 -0.333333 -0.500000      59
  0.333333  0.500000 -0.500000      59
 -0.333333 -0.500000  0.500000      59


--------------------------------------------------------------------------------------------------------




 Dimension of arrays:
   k-points           NKPTS =     60   k-points in BZ     NKDIM =    360   number of bands    NBANDS=    320
   number of dos      NEDOS =    301   number of ions     NIONS =      6
   non local maximal  LDIM  =      6   non local SUM 2l+1 LMDIM =     18
   total plane-waves  NPLWV =  24576
   max r-space proj   IRMAX =      1   max aug-charges    IRDMAX= 121365
   dimension x,y,z NGX =    32 NGY =   32 NGZ =   24
   dimension x,y,z NGXF=    64 NGYF=   64 NGZF=   48
   support grid    NGXF=   128 NGYF=  128 NGZF=   96
   ions per type =               2   4
 NGX,Y,Z   is equivalent  to a cutoff of  11.17, 11.17, 12.48 a.u.
 NGXF,Y,Z  is equivalent  to a cutoff of  22.35, 22.35, 24.96 a.u.


 I would recommend the setting:
   dimension x,y,z NGX =    31 NGY =   31 NGZ =   21
 SYSTEM =  ZnO                                     
 POSCAR =   POSCAR by pos_vscal                    

 Startparameter for this run:
   NWRITE =      2    write-flag & timer
   PREC   = accura    medium, high low
   ISTART =      1    job   : 0-new  1-cont  2-samecut
   ICHARG =      0    charge: 1-file 2-atom 10-const
   ISPIN  =      1    spin polarized calculation?
   LNONCOLLINEAR =      F non collinear calculations
   LSORBIT =      F    spin-orbit coupling
   INIWAV =      1    electr: 0-lowe 1-rand  2-diag
   LASPH  =      F    aspherical Exc in radial PAW
   METAGGA=      F    non-selfconsistent MetaGGA calc.

 Electronic Relaxation 1
   ENCUT  =  400.0 eV  29.40 Ry    5.42 a.u.   7.76  7.76  5.21*2*pi/ulx,y,z
   ENINI  =  400.0     initial cutoff
   ENAUG  =  605.4 eV  augmentation charge cutoff
   NELM   =     60;   NELMIN=  2; NELMDL=  0     # of ELM steps 
   EDIFF  = 0.1E-03   stopping-criterion for ELM
   LREAL  =      F    real-space projection
   LCOMPAT=      F    compatible to vasp.4.4
   LREAL_COMPAT= F    compatible to vasp.4.5.1-3
   GGA_COMPAT  = T    GGA compatible to vasp.4.4-vasp.4.6
   LMAXPAW     = -100 max onsite density
   LMAXMIX     =    4 max onsite mixed and CHGCAR
   VOSKOWN=      0    Vosko Wilk Nusair interpolation
   ROPT   =    0.00000   0.00000
 Ionic relaxation
   EDIFFG = 0.1E-02   stopping-criterion for IOM
   NSW    =      0    number of steps for IOM
   NBLOCK =      1;   KBLOCK =      1    inner block; outer block 
   IBRION =     -1    ionic relax: 0-MD 1-quasi-New 2-CG
   NFREE  =      0    steps in history (QN), initial steepest desc. (CG)
   ISIF   =      0    stress and relaxation
   IWAVPR =     10    prediction:  0-non 1-charg 2-wave 3-comb
   ISYM   =      3    0-nonsym 1-usesym 2-fastsym
   LCORR  =      T    Harris-Foulkes like correction to forces

   POTIM  = 0.5000    time-step for ionic-motion
   TEIN   =    0.0    initial temperature
   TEBEG  =    0.0;   TEEND  =   0.0 temperature during run
   SMASS  =  -3.00    Nose mass-parameter (am)
   estimated Nose-frequenzy (Omega)   =  0.10E-29 period in steps =****** mass=  -0.518E-27a.u.
   NPACO  =    256;   APACO  = 16.0  distance and # of slots for P.C.
   PSTRESS=    0.0 pullay stress

  Mass of Ions in am
   POMASS = 118.71 16.00
  Ionic Valenz
   ZVAL   =  14.00  6.00
  Atomic Wigner-Seitz radii
   RWIGS  =   1.20  1.20
   NELECT =      52.0000    total number of electrons
   NUPDOWN=      -1.0000    fix difference up-down

 DOS related values:
   EMIN   =  10.00;   EMAX   =-10.00  energy-range for DOS
   EFERMI =   0.00
   ISMEAR =     0;   SIGMA  =   0.01  broadening in eV -4-tet -1-fermi 0-gaus

 Electronic relaxation 2 (details)
   IALGO  =     58    algorithm
   LDIAG  =      T    sub-space diagonalisation
   IMIX   =      4    mixing-type and parameters
     AMIX     =   0.40;   BMIX     =  1.00
     AMIX_MAG =   1.60;   BMIX_MAG =  1.00
     AMIN     =   0.10
     WC   =   100.;   INIMIX=   1;  MIXPRE=   1

 Intra band minimization:
   WEIMIN = 0.0000     energy-eigenvalue tresh-hold
   EBREAK =  0.78E-07  absolut break condition
   DEPER  =   0.30     relativ break condition  

   TIME   =   0.40     timestep for ELM

  volume/ion in A,a.u.               =      12.08        81.49
  Fermi-wavevector in a.u.,A,eV,Ry     =   1.465726  2.769821 29.230119  2.148353
  Thomas-Fermi vector in A             =   2.581549

 Write flags
   LWAVE  =      T    write WAVECAR
   LCHARG =      T    write CHGCAR
   LVTOT  =      F    write LOCPOT, local potential
   LELF   =      F    write electronic localiz. function (ELF)
   LORBIT =     10    0 simple, 1 ext, 2 COOP (PROOUT)


 Dipole corrections
   LMONO  =      F    monopole corrections only (constant potential shift)
   LDIPOL =      F    correct potential (dipole corrections)
   IDIPOL =      0    1-x, 2-y, 3-z, 4-all directions 
   EPSILON=  1.0000000 bulk dielectric constant

 Exchange correlation treatment:
   GGA     =    --    GGA type
   LEXCH   =     8    internal setting for exchange type
   VOSKOWN=      0    Vosko Wilk Nusair interpolation
   EXXOEP  =     0    0=HF, 1=EXX-LHF (local Hartree Fock) 2=EXX OEP
   LHFCALC =     T    Hartree Fock is set to
   LRHFCALC=     F    long range Hartree Fock
   LRSCOR  =     F    long range correlation only (use DFT for short range part)
   LTHOMAS =     F    Thomas Fermi screening in HF
   LMODELHF=     F    short range full HF, long range fraction AEXX
   ENCUTFOCK= 200.0   cutoff for exchange potential in eV
   ENCUT4O =  -1.0   cutoff for four orbital integrals eV
   LMAXFOCK=     4    L truncation for augmentation on plane wave grid
   LMAXFOCKAE=  -1    L truncation for all-electron charge restoration on plane wave grid
   NMAXFOCKAE=   1    number of basis functions for all-electron charge restoration
   NKREDX  =     2    reduce k-point grid by
   NKREDY  =     2    reduce k-point grid by
   NKREDZ  =     2    reduce k-point grid by
   SHIFTRED=     F    shift reduced grid of Gamma
   HFKIDENT=     F    idential grid for each k-point
   ODDONLY =     F    use only odd q-grid points
   EVENONLY=     F    use only even q-grid points
   HFALPHA =   -1.0000 decay constant for conv. correction
   AEXX    =    0.2500 exact exchange contribution
   HFSCREEN=    0.2000 screening length (either q_TF or 0.3 A-1)
   HFSCREENC=   0.2000 screening length for correlation (either q_TF or 0.3 A-1)
   HFRCUT  =    0.0000 spherical cutoff for potential kernel
   ALDAX   =    0.7500 LDA exchange part
   AGGAX   =    0.7500 GGA exchange part
   ALDAC   =    1.0000 LDA correlation
   AGGAC   =    1.0000 GGA correlation

 Linear response parameters
   LEPSILON=     F    determine dielectric tensor
   LRPA    =     F    only Hartree local field effects (RPA)
   LNABLA  =     F    use nabla operator in PAW spheres
   LVEL    =     F    velocity operator in full k-point grid
   LINTERFAST=   F  fast interpolation
   KINTER  =     0    interpolate to denser k-point grid
   CSHIFT  =0.1000    complex shift for real part using Kramers Kronig
   OMEGAMAX=  -1.0    maximum frequency

 Orbital magnetization related:
   ORBITALMAG=     F  switch on orbital magnetization
   LCHIMAG   =     F  perturbation theory with respect to B field



--------------------------------------------------------------------------------------------------------


 Static calculation
 charge density and potential will be updated during run
 non-spin polarized calculation
 Conjugate gradient for all bands, subspace preconditioning
 preconditioned conjugated gradient                                        
 perform sub-space diagonalisation
    before iterative eigenvector-optimisation
 modified Broyden-mixing scheme, WC =      100.0
 initial mixing is a Kerker type mixing with AMIX =  0.4000 and BMIX =      1.0000
 Hartree-type preconditioning will be used
 using additional bands           294
 reciprocal scheme for non local part
 use partial core corrections
 no Harris-corrections to forces 
 use gradient corrections 
 use of overlap-Matrix (Vanderbilt PP)
 Gauss-broadening in eV      SIGMA  =   0.01


--------------------------------------------------------------------------------------------------------


  energy-cutoff  :      400.00
  volume of cell :       72.4552
      direct lattice vectors                 reciprocal lattice vectors
     4.760806825  0.000000000  0.000000000     0.210048430  0.000000000  0.000000000
     0.000000000  4.760806825  0.000000000     0.000000000  0.210048430  0.000000000
     0.000000000  0.000000000  3.196746585     0.000000000  0.000000000  0.312818040

  length of vectors
     4.760806825  4.760806825  3.196746585     0.210048430  0.210048430  0.312818040



 old parameters found on file WAVECAR:
  energy-cutoff  :      400.00
  volume of cell :       72.4552
      direct lattice vectors                 reciprocal lattice vectors
     4.760806825  0.000000000  0.000000000     0.210048430  0.000000000  0.000000000
     0.000000000  4.760806825  0.000000000     0.000000000  0.210048430  0.000000000
     0.000000000  0.000000000  3.196746585     0.000000000  0.000000000  0.312818040

  length of vectors


 k-points in units of 2pi/SCALE and weight: Automatic generation                    
   0.00000000  0.00000000  0.00000000       0.003
   0.16678861  0.00000000  0.00000000       0.011
   0.33357721  0.00000000  0.00000000       0.011
   0.50036582  0.00000000  0.00000000       0.006
   0.16678861  0.16678861  0.00000000       0.011
   0.33357721  0.16678861  0.00000000       0.022
   0.50036582  0.16678861  0.00000000       0.011
   0.33357721  0.33357721  0.00000000       0.011
   0.50036582  0.33357721  0.00000000       0.011
   0.50036582  0.50036582  0.00000000       0.003
   0.00000000  0.00000000  0.14903559       0.006
   0.16678861  0.00000000  0.14903559       0.022
   0.33357721  0.00000000  0.14903559       0.022
   0.50036582  0.00000000  0.14903559       0.011
   0.16678861  0.16678861  0.14903559       0.022
   0.33357721  0.16678861  0.14903559       0.044
   0.50036582  0.16678861  0.14903559       0.022
   0.33357721  0.33357721  0.14903559       0.022
   0.50036582  0.33357721  0.14903559       0.022
   0.50036582  0.50036582  0.14903559       0.006
   0.00000000  0.00000000  0.29807117       0.006
   0.16678861  0.00000000  0.29807117       0.022
   0.33357721  0.00000000  0.29807117       0.022
   0.50036582  0.00000000  0.29807117       0.011
   0.16678861  0.16678861  0.29807117       0.022
   0.33357721  0.16678861  0.29807117       0.044
   0.50036582  0.16678861  0.29807117       0.022
   0.33357721  0.33357721  0.29807117       0.022
   0.50036582  0.33357721  0.29807117       0.022
   0.50036582  0.50036582  0.29807117       0.006
   0.00000000  0.00000000  0.44710676       0.006
   0.16678861  0.00000000  0.44710676       0.022
   0.33357721  0.00000000  0.44710676       0.022
   0.50036582  0.00000000  0.44710676       0.011
   0.16678861  0.16678861  0.44710676       0.022
   0.33357721  0.16678861  0.44710676       0.044
   0.50036582  0.16678861  0.44710676       0.022
   0.33357721  0.33357721  0.44710676       0.022
   0.50036582  0.33357721  0.44710676       0.022
   0.50036582  0.50036582  0.44710676       0.006
   0.00000000  0.00000000  0.59614234       0.006
   0.16678861  0.00000000  0.59614234       0.022
   0.33357721  0.00000000  0.59614234       0.022
   0.50036582  0.00000000  0.59614234       0.011
   0.16678861  0.16678861  0.59614234       0.022
   0.33357721  0.16678861  0.59614234       0.044
   0.50036582  0.16678861  0.59614234       0.022
   0.33357721  0.33357721  0.59614234       0.022
   0.50036582  0.33357721  0.59614234       0.022
   0.50036582  0.50036582  0.59614234       0.006
   0.00000000  0.00000000  0.74517793       0.003
   0.16678861  0.00000000  0.74517793       0.011
   0.33357721  0.00000000  0.74517793       0.011
   0.50036582  0.00000000  0.74517793       0.006
   0.16678861  0.16678861  0.74517793       0.011
   0.33357721  0.16678861  0.74517793       0.022
   0.50036582  0.16678861  0.74517793       0.011
   0.33357721  0.33357721  0.74517793       0.011
   0.50036582  0.33357721  0.74517793       0.011
   0.50036582  0.50036582  0.74517793       0.003

 k-points in reciprocal lattice and weights: Automatic generation                    
   0.00000000  0.00000000  0.00000000       0.003
   0.16666667  0.00000000  0.00000000       0.011
   0.33333333  0.00000000  0.00000000       0.011
   0.50000000  0.00000000  0.00000000       0.006
   0.16666667  0.16666667  0.00000000       0.011
   0.33333333  0.16666667  0.00000000       0.022
   0.50000000  0.16666667  0.00000000       0.011
   0.33333333  0.33333333  0.00000000       0.011
   0.50000000  0.33333333  0.00000000       0.011
   0.50000000  0.50000000  0.00000000       0.003
   0.00000000  0.00000000  0.10000000       0.006
   0.16666667  0.00000000  0.10000000       0.022
   0.33333333  0.00000000  0.10000000       0.022
   0.50000000  0.00000000  0.10000000       0.011
   0.16666667  0.16666667  0.10000000       0.022
   0.33333333  0.16666667  0.10000000       0.044
   0.50000000  0.16666667  0.10000000       0.022
   0.33333333  0.33333333  0.10000000       0.022
   0.50000000  0.33333333  0.10000000       0.022
   0.50000000  0.50000000  0.10000000       0.006
   0.00000000  0.00000000  0.20000000       0.006
   0.16666667  0.00000000  0.20000000       0.022
   0.33333333  0.00000000  0.20000000       0.022
   0.50000000  0.00000000  0.20000000       0.011
   0.16666667  0.16666667  0.20000000       0.022
   0.33333333  0.16666667  0.20000000       0.044
   0.50000000  0.16666667  0.20000000       0.022
   0.33333333  0.33333333  0.20000000       0.022
   0.50000000  0.33333333  0.20000000       0.022
   0.50000000  0.50000000  0.20000000       0.006
   0.00000000  0.00000000  0.30000000       0.006
   0.16666667  0.00000000  0.30000000       0.022
   0.33333333  0.00000000  0.30000000       0.022
   0.50000000  0.00000000  0.30000000       0.011
   0.16666667  0.16666667  0.30000000       0.022
   0.33333333  0.16666667  0.30000000       0.044
   0.50000000  0.16666667  0.30000000       0.022
   0.33333333  0.33333333  0.30000000       0.022
   0.50000000  0.33333333  0.30000000       0.022
   0.50000000  0.50000000  0.30000000       0.006
   0.00000000  0.00000000  0.40000000       0.006
   0.16666667  0.00000000  0.40000000       0.022
   0.33333333  0.00000000  0.40000000       0.022
   0.50000000  0.00000000  0.40000000       0.011
   0.16666667  0.16666667  0.40000000       0.022
   0.33333333  0.16666667  0.40000000       0.044
   0.50000000  0.16666667  0.40000000       0.022
   0.33333333  0.33333333  0.40000000       0.022
   0.50000000  0.33333333  0.40000000       0.022
   0.50000000  0.50000000  0.40000000       0.006
   0.00000000  0.00000000  0.50000000       0.003
   0.16666667  0.00000000  0.50000000       0.011
   0.33333333  0.00000000  0.50000000       0.011
   0.50000000  0.00000000  0.50000000       0.006
   0.16666667  0.16666667  0.50000000       0.011
   0.33333333  0.16666667  0.50000000       0.022
   0.50000000  0.16666667  0.50000000       0.011
   0.33333333  0.33333333  0.50000000       0.011
   0.50000000  0.33333333  0.50000000       0.011
   0.50000000  0.50000000  0.50000000       0.003

 position of ions in fractional coordinates (direct lattice) 
   0.00000000  0.00000000  0.00000000
   0.50000000  0.50000000  0.50000000
   0.30599180  0.30599180  0.00000000
   0.69400820  0.69400820  0.00000000
   0.80599180  0.19400820  0.50000000
   0.19400820  0.80599180  0.50000000

 position of ions in cartesian coordinates  (Angst):
   0.00000000  0.00000000  0.00000000
   2.38040341  2.38040341  1.59837329
   1.45676785  1.45676785  0.00000000
   3.30403898  3.30403898  0.00000000
   3.83717126  0.92363557  1.59837329
   0.92363557  3.83717126  1.59837329



--------------------------------------------------------------------------------------------------------


 k-point  1 :  0.00000.00000.0000  plane waves:    1299
 k-point  2 :  0.16670.00000.0000  plane waves:    1319
 k-point  3 :  0.33330.00000.0000  plane waves:    1322
 k-point  4 :  0.50000.00000.0000  plane waves:    1336
 k-point  5 :  0.16670.16670.0000  plane waves:    1325
 k-point  6 :  0.33330.16670.0000  plane waves:    1315
 k-point  7 :  0.50000.16670.0000  plane waves:    1324
 k-point  8 :  0.33330.33330.0000  plane waves:    1317
 k-point  9 :  0.50000.33330.0000  plane waves:    1302
 k-point 10 :  0.50000.50000.0000  plane waves:    1308
 k-point 11 :  0.00000.00000.1000  plane waves:    1323
 k-point 12 :  0.16670.00000.1000  plane waves:    1309
 k-point 13 :  0.33330.00000.1000  plane waves:    1325
 k-point 14 :  0.50000.00000.1000  plane waves:    1326
 k-point 15 :  0.16670.16670.1000  plane waves:    1315
 k-point 16 :  0.33330.16670.1000  plane waves:    1318
 k-point 17 :  0.50000.16670.1000  plane waves:    1320
 k-point 18 :  0.33330.33330.1000  plane waves:    1303
 k-point 19 :  0.50000.33330.1000  plane waves:    1306
 k-point 20 :  0.50000.50000.1000  plane waves:    1312
 k-point 21 :  0.00000.00000.2000  plane waves:    1319
 k-point 22 :  0.16670.00000.2000  plane waves:    1314
 k-point 23 :  0.33330.00000.2000  plane waves:    1314
 k-point 24 :  0.50000.00000.2000  plane waves:    1310
 k-point 25 :  0.16670.16670.2000  plane waves:    1316
 k-point 26 :  0.33330.16670.2000  plane waves:    1315
 k-point 27 :  0.50000.16670.2000  plane waves:    1312
 k-point 28 :  0.33330.33330.2000  plane waves:    1302
 k-point 29 :  0.50000.33330.2000  plane waves:    1318
 k-point 30 :  0.50000.50000.2000  plane waves:    1324
 k-point 31 :  0.00000.00000.3000  plane waves:    1314
 k-point 32 :  0.16670.00000.3000  plane waves:    1324
 k-point 33 :  0.33330.00000.3000  plane waves:    1318
 k-point 34 :  0.50000.00000.3000  plane waves:    1314
 k-point 35 :  0.16670.16670.3000  plane waves:    1315
 k-point 36 :  0.33330.16670.3000  plane waves:    1318
 k-point 37 :  0.50000.16670.3000  plane waves:    1318
 k-point 38 :  0.33330.33330.3000  plane waves:    1315
 k-point 39 :  0.50000.33330.3000  plane waves:    1310
 k-point 40 :  0.50000.50000.3000  plane waves:    1308
 k-point 41 :  0.00000.00000.4000  plane waves:    1322
 k-point 42 :  0.16670.00000.4000  plane waves:    1315
 k-point 43 :  0.33330.00000.4000  plane waves:    1310
 k-point 44 :  0.50000.00000.4000  plane waves:    1320
 k-point 45 :  0.16670.16670.4000  plane waves:    1306
 k-point 46 :  0.33330.16670.4000  plane waves:    1322
 k-point 47 :  0.50000.16670.4000  plane waves:    1324
 k-point 48 :  0.33330.33330.4000  plane waves:    1325
 k-point 49 :  0.50000.33330.4000  plane waves:    1318
 k-point 50 :  0.50000.50000.4000  plane waves:    1320
 k-point 51 :  0.00000.00000.5000  plane waves:    1306
 k-point 52 :  0.16670.00000.5000  plane waves:    1308
 k-point 53 :  0.33330.00000.5000  plane waves:    1314
 k-point 54 :  0.50000.00000.5000  plane waves:    1328
 k-point 55 :  0.16670.16670.5000  plane waves:    1304
 k-point 56 :  0.33330.16670.5000  plane waves:    1322
 k-point 57 :  0.50000.16670.5000  plane waves:    1324
 k-point 58 :  0.33330.33330.5000  plane waves:    1330
 k-point 59 :  0.50000.33330.5000  plane waves:    1324
 k-point 60 :  0.50000.50000.5000  plane waves:    1344

 maximum and minimum number of plane-waves per node :    1344   1299

 maximum number of plane-waves:    1344
 maximal index in each direction: 
   IXMAX=  7   IYMAX=  7   IZMAX=  5
   IXMIN= -8   IYMIN= -8   IZMIN= -5

 NGX is ok and might be reduce to  32
 NGY is ok and might be reduce to  32
 NGZ is ok and might be reduce to  22

 serial   3D FFT for wavefunctions
 parallel 3D FFT for charge:
    minimum data exchange during FFTs selected (reduces bandwidth)


 FFT grid for exact exchange (Hartree Fock) 
  NGX = 24; NGY = 24; NGZ = 16


 total amount of memory used by VASP on root node 226088. kBytes
========================================================================

   base      :    30000. kBytes
   nonl-proj :    23353. kBytes
   fftplans  :     3765. kBytes
   grid      :     5169. kBytes
   one-center:       93. kBytes
   HF        :      129. kBytes
   nonlr-proj:      457. kBytes
   wavefun   :   163122. kBytes

 Broyden mixing: mesh for mixing (old mesh)
   NGX = 15   NGY = 15   NGZ = 11
  (NGX  = 64   NGY  = 64   NGZ  = 48)
  gives a total of   2475 points

 charge density for first step will be calculated from the start-wavefunctions


--------------------------------------------------------------------------------------------------------


 Maximum index for augmentation-charges         14793 (set IRDMAX)


--------------------------------------------------------------------------------------------------------


 initial charge from wavefunction
 First call to EWALD:  gamma=   0.425
 Maximum number of real-space cells 2x 2x 3
 Maximum number of reciprocal cells 3x 3x 2

    FEWALD:  cpu time    0.00: real time    0.00
   RESPFUN:  cpu time    0.00: real time    0.00


----------------------------------------- Iteration    1(   1)  ---------------------------------------


    POTLOK:  cpu time    0.31: real time    0.31
    SETDIJ:  cpu time    1.42: real time    1.41

    SUBROT:  cpu time   50.77: real time   51.41
    SUBROT:  cpu time   24.76: real time   24.99
    SUBROT:  cpu time   25.01: real time   25.35
    SUBROT:  cpu time   24.96: real time   25.27
    --------------------------------------------
    SUBRT+:  cpu time  125.50: real time  127.56

 Broyden mixing:
  rms(total) = 0.14762E-02    rms(broyden)= 0.14739E-02
  rms(prec ) = 0.25166E-02
  weight for this iteration     100.00

 eigenvalues of (default mixing * dielectric matrix)
  average eigenvalue GAMMA=   1.8804
  1.0265  2.5495  2.0651

    TRIAL :  cpu time 4273.34: real time 4277.70
    CORREC:  cpu time 4117.47: real time 4119.17
    CHARGE:  cpu time    1.42: real time    1.42
    --------------------------------------------
      LOOP:  cpu time 8394.26: real time 8400.34

 eigenvalue-minimisations  :     0
 total energy-change (2. order) :-0.5463883E+02  (-0.2218051E+00)
 number of electron   52.0000002 magnetization 
 augmentation part    18.0148791 magnetization 

 Free energy of the ion-electron system (eV)
  ---------------------------------------------------
  alpha Z        PSCENC =       180.96687365
  Ewald energy   TEWEN  =     -4166.05284040
  -1/2 Hartree   DENC   =     -1419.39579583
  -exchange  EXHF       =       144.95393679
  -V(xc)+E(xc)   XCENC  =       176.78229697
  PAW double counting   =      4109.02900823    -4170.70015704
  entropy T*S    EENTRO =         0.00000000
  eigenvalues    EBANDS =      -405.01249555
  atomic energy  EATOM  =      5494.79034272
  ---------------------------------------------------
  free energy    TOTEN  =       -54.63883046 eV

  energy without entropy =      -54.63883046  energy(sigma->0) =      -54.63883046


--------------------------------------------------------------------------------------------------------




----------------------------------------- Iteration    1(   2)  ---------------------------------------


    POTLOK:  cpu time    0.28: real time    0.28
    SETDIJ:  cpu time    1.41: real time    1.42

    SUBROT:  cpu time   50.76: real time   51.29
    SUBROT:  cpu time   24.84: real time   25.10
    SUBROT:  cpu time   24.46: real time   24.73
    --------------------------------------------
    SUBRT+:  cpu time  100.05: real time  101.76

 Broyden mixing:
  rms(total) = 0.45015E-03    rms(broyden)= 0.44507E-03
  rms(prec ) = 0.88367E-03
  weight for this iteration     100.00

 eigenvalues of (default mixing * dielectric matrix)
  average eigenvalue GAMMA=   1.9524
  2.5004  1.4045

    TRIAL :  cpu time 4246.81: real time 4250.83
    CORREC:  cpu time 4137.15: real time 4138.92
    CHARGE:  cpu time    1.46: real time    1.45
    --------------------------------------------
      LOOP:  cpu time 8387.12: real time 8393.43

 eigenvalue-minimisations  :     0
 total energy-change (2. order) :-0.2217609E+00  (-0.6277589E-02)
 number of electron   52.0000002 magnetization 
 augmentation part    18.0180141 magnetization 

 Free energy of the ion-electron system (eV)
  ---------------------------------------------------
  alpha Z        PSCENC =       180.96687365
  Ewald energy   TEWEN  =     -4166.05284040
  -1/2 Hartree   DENC   =     -1422.72265697
  -exchange  EXHF       =       145.49964497
  -V(xc)+E(xc)   XCENC  =       176.99502124
  PAW double counting   =      4114.30137090    -4174.74838074
  entropy T*S    EENTRO =         0.00000000
  eigenvalues    EBANDS =      -403.88996679
  atomic energy  EATOM  =      5494.79034272
  ---------------------------------------------------
  free energy    TOTEN  =       -54.86059141 eV

  energy without entropy =      -54.86059141  energy(sigma->0) =      -54.86059141


--------------------------------------------------------------------------------------------------------




----------------------------------------- Iteration    1(   3)  ---------------------------------------


    POTLOK:  cpu time    0.28: real time    0.28
    SETDIJ:  cpu time    1.42: real time    1.42

    SUBROT:  cpu time   49.94: real time   50.51
    SUBROT:  cpu time   24.97: real time   25.28
    SUBROT:  cpu time   24.84: real time   25.08
    SUBROT:  cpu time   24.69: real time   24.97
    --------------------------------------------
    SUBRT+:  cpu time  124.45: real time  126.38

 Broyden mixing:
  rms(total) = 0.11471E-03    rms(broyden)= 0.11407E-03
  rms(prec ) = 0.24591E-03
  weight for this iteration     100.00

 eigenvalues of (default mixing * dielectric matrix)
  average eigenvalue GAMMA=   1.7473
  2.5245  1.0208  1.6967

    TRIAL :  cpu time 4274.90: real time 4279.13
    CORREC:  cpu time 4113.93: real time 4115.47
    CHARGE:  cpu time    1.41: real time    1.42
    --------------------------------------------
      LOOP:  cpu time 8391.93: real time 8398.35

 eigenvalue-minimisations  :     0
 total energy-change (2. order) :-0.6548903E-02  (-0.1981825E-02)
 number of electron   52.0000002 magnetization 
 augmentation part    18.0167222 magnetization 

 Free energy of the ion-electron system (eV)
  ---------------------------------------------------
  alpha Z        PSCENC =       180.96687365
  Ewald energy   TEWEN  =     -4166.05284040
  -1/2 Hartree   DENC   =     -1422.81665973
  -exchange  EXHF       =       145.53530182
  -V(xc)+E(xc)   XCENC  =       177.00767855
  PAW double counting   =      4115.67178488    -4175.95516303
  entropy T*S    EENTRO =         0.00000000
  eigenvalues    EBANDS =      -404.01445878
  atomic energy  EATOM  =      5494.79034272
  ---------------------------------------------------
  free energy    TOTEN  =       -54.86714032 eV

  energy without entropy =      -54.86714032  energy(sigma->0) =      -54.86714032


--------------------------------------------------------------------------------------------------------




----------------------------------------- Iteration    1(   4)  ---------------------------------------


    POTLOK:  cpu time    0.28: real time    0.28
    SETDIJ:  cpu time    1.41: real time    1.41

    SUBROT:  cpu time   47.65: real time   48.05
    SUBROT:  cpu time   23.38: real time   23.56
    SUBROT:  cpu time   23.35: real time   23.56
    --------------------------------------------
    SUBRT+:  cpu time   94.38: real time   95.71

 Broyden mixing:
  rms(total) = 0.64348E-03    rms(broyden)= 0.64337E-03
  rms(prec ) = 0.94978E-03
  weight for this iteration     100.00

 eigenvalues of (default mixing * dielectric matrix)
  average eigenvalue GAMMA=   1.7683
  2.4867  1.0498

    TRIAL :  cpu time 4225.33: real time 4228.89
    CORREC:  cpu time 4106.89: real time 4108.32
    CHARGE:  cpu time    1.42: real time    1.42
    --------------------------------------------
      LOOP:  cpu time 8335.33: real time 8340.84

 eigenvalue-minimisations  :     0
 total energy-change (2. order) :-0.1994177E-02  (-0.7188298E-03)
 number of electron   52.0000002 magnetization 
 augmentation part    18.0159785 magnetization 

 Free energy of the ion-electron system (eV)
  ---------------------------------------------------
  alpha Z        PSCENC =       180.96687365
  Ewald energy   TEWEN  =     -4166.05284040
  -1/2 Hartree   DENC   =     -1422.83953647
  -exchange  EXHF       =       145.54250118
  -V(xc)+E(xc)   XCENC  =       177.01019903
  PAW double counting   =      4116.80880707    -4177.05516253
  entropy T*S    EENTRO =         0.00000000
  eigenvalues    EBANDS =      -404.04031875
  atomic energy  EATOM  =      5494.79034272
  ---------------------------------------------------
  free energy    TOTEN  =       -54.86913449 eV

  energy without entropy =      -54.86913449  energy(sigma->0) =      -54.86913449


--------------------------------------------------------------------------------------------------------




----------------------------------------- Iteration    1(   5)  ---------------------------------------


    POTLOK:  cpu time    0.29: real time    0.29
    SETDIJ:  cpu time    1.42: real time    1.42

    SUBROT:  cpu time   47.46: real time   47.88
    SUBROT:  cpu time   23.41: real time   23.58
    --------------------------------------------
    SUBRT+:  cpu time   70.88: real time   72.01

 Broyden mixing:
  rms(total) = 0.68751E-03    rms(broyden)= 0.68736E-03
  rms(prec ) = 0.98643E-03
  weight for this iteration     100.00

 eigenvalues of (default mixing * dielectric matrix)
  average eigenvalue GAMMA=   1.5842
  1.5842

    TRIAL :  cpu time 4205.51: real time 4208.67
    CORREC:  cpu time 4102.16: real time 4103.73
    CHARGE:  cpu time    1.43: real time    1.43
    --------------------------------------------
      LOOP:  cpu time 8310.81: real time 8316.05

 eigenvalue-minimisations  :     0
 total energy-change (2. order) :-0.7165908E-03  (-0.2401938E-03)
 number of electron   52.0000002 magnetization 
 augmentation part    18.0160059 magnetization 

 Free energy of the ion-electron system (eV)
  ---------------------------------------------------
  alpha Z        PSCENC =       180.96687365
  Ewald energy   TEWEN  =     -4166.05284040
  -1/2 Hartree   DENC   =     -1422.86361642
  -exchange  EXHF       =       145.54385986
  -V(xc)+E(xc)   XCENC  =       177.01094914
  PAW double counting   =      4117.53164640    -4177.77617795
  entropy T*S    EENTRO =         0.00000000
  eigenvalues    EBANDS =      -404.02088808
  atomic energy  EATOM  =      5494.79034272
  ---------------------------------------------------
  free energy    TOTEN  =       -54.86985108 eV

  energy without entropy =      -54.86985108  energy(sigma->0) =      -54.86985108


--------------------------------------------------------------------------------------------------------




----------------------------------------- Iteration    1(   6)  ---------------------------------------


    POTLOK:  cpu time    0.27: real time    0.28
    SETDIJ:  cpu time    1.42: real time    1.42

    SUBROT:  cpu time   47.56: real time   47.95
    SUBROT:  cpu time   23.41: real time   23.59
    --------------------------------------------
    SUBRT+:  cpu time   70.97: real time   72.07

 Broyden mixing:
  rms(total) = 0.40216E-03    rms(broyden)= 0.40199E-03
  rms(prec ) = 0.56720E-03
  weight for this iteration     100.00

 eigenvalues of (default mixing * dielectric matrix)
  average eigenvalue GAMMA=   1.8878
  1.8878

    TRIAL :  cpu time 4208.52: real time 4211.66
    CORREC:  cpu time 4100.31: real time 4101.87
    CHARGE:  cpu time    1.41: real time    1.42
    --------------------------------------------
      LOOP:  cpu time 8311.93: real time 8316.64

 eigenvalue-minimisations  :     0
 total energy-change (2. order) :-0.2409603E-03  (-0.7388706E-04)
 number of electron   52.0000002 magnetization 
 augmentation part    18.0162765 magnetization 

 Free energy of the ion-electron system (eV)
  ---------------------------------------------------
  alpha Z        PSCENC =       180.96687365
  Ewald energy   TEWEN  =     -4166.05284040
  -1/2 Hartree   DENC   =     -1422.87866378
  -exchange  EXHF       =       145.54421699
  -V(xc)+E(xc)   XCENC  =       177.01122313
  PAW double counting   =      4117.90341846    -4178.15138326
  entropy T*S    EENTRO =         0.00000000
  eigenvalues    EBANDS =      -404.00327955
  atomic energy  EATOM  =      5494.79034272
  ---------------------------------------------------
  free energy    TOTEN  =       -54.87009204 eV

  energy without entropy =      -54.87009204  energy(sigma->0) =      -54.87009204


--------------------------------------------------------------------------------------------------------




----------------------------------------- Iteration    1(   7)  ---------------------------------------


    POTLOK:  cpu time    0.28: real time    0.28
    SETDIJ:  cpu time    1.41: real time    1.41

    SUBROT:  cpu time   47.45: real time   47.93
    SUBROT:  cpu time   23.33: real time   23.51
    --------------------------------------------
    SUBRT+:  cpu time   70.78: real time   71.44

 Broyden mixing:
  rms(total) = 0.12293E-03    rms(broyden)= 0.12242E-03
  rms(prec ) = 0.15946E-03
  weight for this iteration     100.00

 eigenvalues of (default mixing * dielectric matrix)
  average eigenvalue GAMMA=   2.3880
  2.3880

    TRIAL :  cpu time 4198.46: real time 4201.04
    CORREC:  cpu time 4121.59: real time 4123.06
    CHARGE:  cpu time    1.41: real time    1.41
    --------------------------------------------
      LOOP:  cpu time 8323.15: real time 8327.73

 eigenvalue-minimisations  :     0
 total energy-change (2. order) :-0.7499947E-04  (-0.1736485E-04)
 number of electron   52.0000002 magnetization 
 augmentation part    18.0164316 magnetization 

 Free energy of the ion-electron system (eV)
  ---------------------------------------------------
  alpha Z        PSCENC =       180.96687365
  Ewald energy   TEWEN  =     -4166.05284040
  -1/2 Hartree   DENC   =     -1422.88439662
  -exchange  EXHF       =       145.54459358
  -V(xc)+E(xc)   XCENC  =       177.01142201
  PAW double counting   =      4118.07931523    -4178.32852937
  entropy T*S    EENTRO =         0.00000000
  eigenvalues    EBANDS =      -403.99694784
  atomic energy  EATOM  =      5494.79034272
  ---------------------------------------------------
  free energy    TOTEN  =       -54.87016704 eV

  energy without entropy =      -54.87016704  energy(sigma->0) =      -54.87016704


--------------------------------------------------------------------------------------------------------


  average scaling for gradient   1.0076


 average (electrostatic) potential at core
  the test charge radii are     1.0894  0.7215
  (the norm of the test charge is              1.0000)
      1  -90.8656      2  -90.8656      3  -60.9061      4  -60.9061      5  -60.9061
      6  -60.9061



 E-fermi :   4.8468     XC(G=0):  -9.1586     alpha+bet :-14.1275
   add alpha+bet to get absolut eigen values

 k-point   1 :       0.0000    0.0000    0.0000
  band No.  band energies     occupation 
      1     -17.8380      2.00000
      2     -16.9628      2.00000
      3     -16.6659      2.00000
      4     -16.6864      2.00000
      5     -16.6864      2.00000
      6     -16.6102      2.00000
      7     -16.5356      2.00000
      8     -16.4480      2.00000
      9     -16.3954      2.00000
     10     -16.3954      2.00000
     11     -15.6300      2.00000
     12     -13.8129      2.00000
     13     -13.8129      2.00000
     14     -11.8762      2.00000
     15      -3.6279      2.00000
     16       0.5526      2.00000
     17       0.5526      2.00000
     18       0.7468      2.00000
     19       1.3718      2.00000
     20       2.8149      2.00000
     21       2.8788      2.00000
     22       3.6034      2.00000
     23       3.6034      2.00000
     24       3.9313      2.00000
     25       3.9313      2.00000
     26       4.6563      2.00000
     27       7.5654      0.00000
     28      12.8238      0.00000
     29      12.8330      0.00000
     30      12.8330      0.00000
     31      16.9666      0.00000
     32      17.2805      0.00000
     33      19.0686      0.00000
     34      19.0686      0.00000
     35      19.4717      0.00000
     36      19.3847      0.00000
     37      22.4283      0.00000
     38      23.3095      0.00000
     39      25.8009      0.00000
     40      26.4806      0.00000
     41      26.5389      0.00000
     42      26.5389      0.00000
     43      26.5428      0.00000
     44      26.5428      0.00000
     45      27.8230      0.00000
     46      27.8230      0.00000
     47      28.4492      0.00000
     48      29.2929      0.00000
     49      29.5671      0.00000
     50      30.3989      0.00000
     51      33.1141      0.00000
     52      33.1141      0.00000
     53      34.5555      0.00000
     54      34.5555      0.00000
     55      34.2745      0.00000
     56      34.7186      0.00000
     57      36.9388      0.00000
     58      36.9388      0.00000
     59      37.9781      0.00000
     60      37.9617      0.00000
     61      38.7311      0.00000
     62      41.0048      0.00000
     63      40.9220      0.00000
     64      40.9620      0.00000
     65      40.9620      0.00000
     66      41.6345      0.00000
     67      41.6345      0.00000
     68      41.4947      0.00000
     69      41.7844      0.00000
     70      43.7773      0.00000
     71      43.7773      0.00000
     72      43.7533      0.00000
     73      44.2949      0.00000
     74      44.0064      0.00000
     75      46.8800      0.00000
     76      48.4737      0.00000
     77      48.4737      0.00000
     78      49.6859      0.00000
     79      49.6859      0.00000
     80      50.4028      0.00000
     81      51.2293      0.00000
     82      52.2877      0.00000
     83      52.2877      0.00000
     84      52.4033      0.00000
     85      52.4033      0.00000
     86      53.9996      0.00000
     87      54.1205      0.00000
     88      54.1206      0.00000
     89      61.6209      0.00000
     90      61.2849      0.00000
     91      55.4011      0.00000
     92      55.5951      0.00000
     93      56.4662      0.00000
     94      56.8433      0.00000
     95      56.8433      0.00000
     96      56.8660      0.00000
     97      56.6614      0.00000
     98      58.2302      0.00000
     99      59.1816      0.00000
    100      59.6405      0.00000
    101      59.6405      0.00000
    102      60.1346      0.00000
    103      61.4289      0.00000
    104      62.1785      0.00000
    105      62.5555      0.00000
    106      62.5554      0.00000
    107      63.6029      0.00000
    108      63.8044      0.00000
    109      63.8044      0.00000
    110      64.7205      0.00000
    111      66.7573      0.00000
    112      66.7574      0.00000
    113      66.6629      0.00000
    114      66.9425      0.00000
    115      67.6919      0.00000
    116      67.8482      0.00000
    117      68.0566      0.00000
    118      68.0567      0.00000
    119      68.9351      0.00000
    120      70.1344      0.00000
    121      70.1373      0.00000
    122      70.6091      0.00000
    123      70.8226      0.00000
    124      71.1835      0.00000
    125      72.3715      0.00000
    126      72.5624      0.00000
    127      72.9069      0.00000
    128      73.0739      0.00000
    129      77.3298      0.00000
    130      84.5246      0.00000
    131     149.4585      0.00000
    132      86.1008      0.00000
    133     171.5115      0.00000
    134      82.9543      0.00000
    135      76.2230      0.00000
    136      87.0416      0.00000
    137     105.0990      0.00000
    138     108.7806      0.00000
    139     178.9451      0.00000
    140      76.0533      0.00000
    141      93.6940      0.00000
    142      78.3133      0.00000
    143      76.2465      0.00000
    144      82.8428      0.00000
    145      89.9166      0.00000
    146      87.8356      0.00000
    147      84.5464      0.00000
    148      77.8193      0.00000
    149     130.0677      0.00000
    150      82.0111      0.00000
    151      80.2327      0.00000
    152      89.0478      0.00000
    153     125.7527      0.00000
    154      80.6158      0.00000
    155     137.3627      0.00000
    156      79.3160      0.00000
    157      80.0979      0.00000
    158      85.1342      0.00000
    159     105.2866      0.00000
    160      86.6526      0.00000
    161     118.8999      0.00000
    162     147.1489      0.00000
    163     123.1076      0.00000
    164      93.8367      0.00000
    165     100.6045      0.00000
    166      87.7226      0.00000
    167      93.4164      0.00000
    168      89.7226      0.00000
    169     141.3577      0.00000
    170     107.0063      0.00000
    171      91.6825      0.00000
    172     116.8172      0.00000
    173      97.6980      0.00000
    174     101.1062      0.00000
    175      90.7042      0.00000
    176     113.5192      0.00000
    177     112.0124      0.00000
    178     126.7641      0.00000
    179      97.1050      0.00000
    180      91.8675      0.00000
    181      86.3631      0.00000
    182      90.6286      0.00000
    183     115.8096      0.00000
    184      91.5157      0.00000
    185      96.1431      0.00000
    186      98.0978      0.00000
    187     107.2207      0.00000
    188     132.6026      0.00000
    189     131.2550      0.00000
    190     113.5840      0.00000
    191      96.2250      0.00000
    192     100.4829      0.00000
    193      98.3082      0.00000
    194     129.3158      0.00000
    195     138.4843      0.00000
    196      84.7850      0.00000
    197     101.5095      0.00000
    198     147.1832      0.00000
    199     104.9153      0.00000
    200     126.2429      0.00000
    201     112.9399      0.00000
    202     106.9326      0.00000
    203     101.1360      0.00000
    204     132.1625      0.00000
    205     139.9095      0.00000
    206     122.2976      0.00000
    207     119.4701      0.00000
    208      95.3251      0.00000
    209     110.7780      0.00000
    210      96.5157      0.00000
    211      97.3659      0.00000
    212     108.5395      0.00000
    213     100.2437      0.00000
    214     126.8653      0.00000
    215     117.5342      0.00000
    216      87.6445      0.00000
    217     141.6210      0.00000
    218     147.9812      0.00000
    219     121.1358      0.00000
    220     135.8558      0.00000
    221     138.9003      0.00000
    222     151.5526      0.00000
    223     116.2327      0.00000
    224     112.1223      0.00000
    225     135.8777      0.00000
    226     149.1586      0.00000
    227     124.8742      0.00000
    228     152.4835      0.00000
    229     172.4030      0.00000
    230     122.6932      0.00000
    231     143.4717      0.00000
    232     125.8624      0.00000
    233     137.4446      0.00000
    234     158.1475      0.00000
    235     144.8348      0.00000
    236     158.4930      0.00000
    237     144.7511      0.00000
    238     154.1771      0.00000
    239     106.7083      0.00000
    240     138.9266      0.00000
    241     181.5578      0.00000
    242     165.5292      0.00000
    243     127.4282      0.00000
    244     169.6923      0.00000
    245     179.2888      0.00000
    246     164.3200      0.00000
    247     159.4206      0.00000
    248     180.5079      0.00000
    249     164.1206      0.00000
    250     166.1149      0.00000
    251     149.4422      0.00000
    252     120.4487      0.00000
    253     174.8036      0.00000
    254     136.8610      0.00000
    255     177.3393      0.00000
    256     134.5642      0.00000
    257     168.4582      0.00000
    258     155.7777      0.00000
    259     154.1657      0.00000
    260     170.5961      0.00000
    261     186.5827      0.00000
    262     169.1421      0.00000
    263     109.3258      0.00000
    264     171.5687      0.00000
    265     176.4069      0.00000
    266     203.7989      0.00000
    267     193.0799      0.00000
    268     143.0838      0.00000
    269     162.9919      0.00000
    270     196.5261      0.00000
    271     154.1916      0.00000
    272     177.4452      0.00000
    273     176.3359      0.00000
    274     171.8587      0.00000
    275     190.1418      0.00000
    276     190.6677      0.00000
    277     187.9073      0.00000
    278     182.7080      0.00000
    279     126.6121      0.00000
    280     192.8756      0.00000
    281     185.0163      0.00000
    282     124.2593      0.00000
    283     154.9146      0.00000
    284     196.0534      0.00000
    285     201.9909      0.00000
    286     201.4529      0.00000
    287     200.6404      0.00000
    288     206.5379      0.00000
    289     141.3282      0.00000
    290     193.4784      0.00000
    291     167.0327      0.00000
    292     188.3974      0.00000
    293     137.1990      0.00000
    294     208.5711      0.00000
    295     211.2323      0.00000
    296     200.7787      0.00000
    297     115.8758      0.00000
    298     110.2513      0.00000
    299     200.9188      0.00000
    300     195.9946      0.00000
    301     203.0457      0.00000
    302     205.5965      0.00000
    303     185.0826      0.00000
    304     213.7961      0.00000
    305     115.7839      0.00000
    306     217.5586      0.00000
    307     195.5170      0.00000
    308     103.9481      0.00000
    309     212.2025      0.00000
    310     216.6152      0.00000
    311     213.0067      0.00000
    312     194.3317      0.00000
    313     163.7141      0.00000
    314     223.0248      0.00000
    315     132.4598      0.00000
    316     222.4099      0.00000
    317     209.1673      0.00000
    318     225.5823      0.00000
    319     210.3429      0.00000
    320     221.0602      0.00000

 k-point   2 :       0.1667    0.0000    0.0000
  band No.  band energies     occupation 
      1     -17.7925      2.00000
      2     -17.0220      2.00000
      3     -16.6669      2.00000
      4     -16.6848      2.00000
      5     -16.6847      2.00000
      6     -16.6442      2.00000
      7     -16.5290      2.00000
      8     -16.4530      2.00000
      9     -16.3976      2.00000
     10     -16.3975      2.00000
     11     -15.5461      2.00000
     12     -13.9906      2.00000
     13     -13.6343      2.00000
     14     -11.9532      2.00000
     15      -3.4358      2.00000
     16       0.0775      2.00000
     17       0.6884      2.00000
     18       0.8562      2.00000
     19       1.5618      2.00000
     20       2.6210      2.00000
     21       3.0334      2.00000
     22       3.4496      2.00000
     23       3.6063      2.00000
     24       3.6312      2.00000
     25       3.9503      2.00000
     26       4.5172      2.00000
     27       8.2100      0.00000
     28      12.5121      0.00000
     29      12.9549      0.00000
     30      13.1557      0.00000
     31      17.2963      0.00000
     32      17.5617      0.00000
     33      18.7718      0.00000
     34      18.9844      0.00000
     35      19.3354      0.00000
     36      19.4564      0.00000
     37      21.9248      0.00000
     38      23.4764      0.00000
     39      24.2111      0.00000
     40      25.3236      0.00000
     41      25.9890      0.00000
     42      26.6327      0.00000
     43      26.8147      0.00000
     44      26.9715      0.00000
     45      27.7232      0.00000
     46      28.0521      0.00000
     47      29.3231      0.00000
     48      29.5487      0.00000
     49      30.9469      0.00000
     50      31.5096      0.00000
     51      32.2468      0.00000
     52      32.7062      0.00000
     53      33.9610      0.00000
     54      34.0754      0.00000
     55      34.5531      0.00000
     56      35.5290      0.00000
     57      36.9212      0.00000
     58      37.2708      0.00000
     59      37.9792      0.00000
     60      38.4913      0.00000
     61      38.9933      0.00000
     62      40.0285      0.00000
     63      40.6664      0.00000
     64      41.0659      0.00000
     65      41.0248      0.00000
     66      41.0532      0.00000
     67      41.3184      0.00000
     68      41.7268      0.00000
     69      42.3872      0.00000
     70      43.4906      0.00000
     71      43.6546      0.00000
     72      44.2615      0.00000
     73      44.6435      0.00000
     74      44.9248      0.00000
     75      46.6184      0.00000
     76      48.4666      0.00000
     77      48.9717      0.00000
     78      48.7116      0.00000
     79      48.9853      0.00000
     80      50.2363      0.00000
     81      50.7782      0.00000
     82      51.3513      0.00000
     83      52.7938      0.00000
     84      52.9289      0.00000
     85      53.5148      0.00000
     86      53.3031      0.00000
     87      53.4980      0.00000
     88      53.4735      0.00000
     89      54.8752      0.00000
     90      61.5617      0.00000
     91      61.1524      0.00000
     92      55.7600      0.00000
     93      56.1955      0.00000
     94      56.6568      0.00000
     95      56.6213      0.00000
     96      57.5849      0.00000
     97      57.5955      0.00000
     98      58.7009      0.00000
     99      59.4687      0.00000
    100      59.6557      0.00000
    101      60.2770      0.00000
    102      60.2546      0.00000
    103      61.5650      0.00000
    104      61.8908      0.00000
    105      62.4360      0.00000
    106      62.6929      0.00000
    107      63.6007      0.00000
    108      63.3647      0.00000
    109      63.6038      0.00000
    110      64.4387      0.00000
    111      64.7138      0.00000
    112      67.2545      0.00000
    113      67.0832      0.00000
    114      67.3004      0.00000
    115      68.3097      0.00000
    116      68.2367      0.00000
    117      68.6162      0.00000
    118      68.6544      0.00000
    119      69.1523      0.00000
    120      69.7428      0.00000
    121      69.3909      0.00000
    122      70.1658      0.00000
    123      70.3090      0.00000
    124      70.4331      0.00000
    125      70.8531      0.00000
    126      71.6172      0.00000
    127      72.7158      0.00000
[...]


--------------------------------------------------------------------------------------------------------



 plasma frequency squared (from intraband transitions)
  --------------------------------------------------------------------------------------
       0.000       0.000       0.000
       0.000       0.000       0.000
       0.000       0.000       0.000

 plasma frequency squared (from interband transitions, int dw w eps(2)(w)
  --------------------------------------------------------------------------------------
     885.693       0.000       0.000
       0.000     885.693       0.000
       0.000       0.000     887.775
  --------------------------------------------------------------------------------------
 plasma frequency squared  (valence only):     989.594

  frequency dependent IMAGINARY DIELECTRIC FUNCTION (RPA, no local field effects)
     E(ev)      X         Y         Z        XY        YZ        ZX
  --------------------------------------------------------------------------------------
    0.000000    0.000000    0.000000    0.000000    0.000000    0.000000    0.000000
    2.994441    0.000000    0.000000    0.000000    0.000000    0.000000    0.000000
    5.988883    1.692718    1.692718    0.889588    0.000000    0.000000    0.000000
    8.983324    3.474889    3.474889    3.077567    0.000000    0.000000    0.000000
   11.977765    4.221849    4.221849    5.822140    0.000000    0.000000    0.000000
   14.972207    3.081101    3.081101    2.091224    0.000000    0.000000    0.000000
   17.966648    1.987413    1.987413    2.283596    0.000000    0.000000    0.000000
   20.961090    0.862872    0.862872    0.984714    0.000000    0.000000    0.000000
   23.955531    0.973982    0.973982    0.577594    0.000000    0.000000    0.000000
   26.949972    0.547881    0.547881    0.507408    0.000000    0.000000    0.000000
   29.944414    0.431035    0.431035    0.269254    0.000000    0.000000    0.000000
   32.938855    0.457125    0.457125    0.397811    0.000000    0.000000    0.000000
   35.933296    0.502320    0.502320    0.546199    0.000000    0.000000    0.000000
   38.927738    0.210574    0.210574    0.345508    0.000000    0.000000    0.000000
   41.922179    0.305423    0.305423    0.250288    0.000000    0.000000    0.000000
   44.916621    0.264185    0.264185    0.293161    0.000000    0.000000    0.000000
   47.911062    0.346405    0.346405    0.274258    0.000000    0.000000    0.000000
   50.905503    0.279843    0.279843    0.287652    0.000000    0.000000    0.000000
   53.899945    0.292439    0.292439    0.249002    0.000000    0.000000    0.000000
   56.894386    0.283383    0.283383    0.339320    0.000000    0.000000    0.000000
   59.888827    0.180853    0.180853    0.240078    0.000000    0.000000    0.000000
   62.883269    0.158170    0.158170    0.144870    0.000000    0.000000    0.000000
   65.877710    0.179973    0.179973    0.134546    0.000000    0.000000    0.000000
   68.872152    0.121399    0.121399    0.100236    0.000000    0.000000    0.000000
   71.866593    0.062555    0.062555    0.063718    0.000000    0.000000    0.000000
   74.861034    0.066392    0.066392    0.071371    0.000000    0.000000    0.000000
   77.855476    0.071956    0.071956    0.070972    0.000000    0.000000    0.000000
   80.849917    0.057325    0.057325    0.056189    0.000000    0.000000    0.000000
   83.844358    0.055933    0.055933    0.056711    0.000000    0.000000    0.000000
   86.838800    0.052665    0.052665    0.047079    0.000000    0.000000    0.000000
   89.833241    0.027447    0.027447    0.029008    0.000000    0.000000    0.000000
   92.827683    0.016594    0.016594    0.015151    0.000000    0.000000    0.000000
   95.822124    0.022391    0.022391    0.022279    0.000000    0.000000    0.000000
   98.816565    0.022047    0.022047    0.020675    0.000000    0.000000    0.000000
  101.811007    0.021433    0.021433    0.018532    0.000000    0.000000    0.000000
  104.805448    0.019290    0.019290    0.018562    0.000000    0.000000    0.000000
  107.799889    0.020348    0.020348    0.017537    0.000000    0.000000    0.000000
  110.794331    0.021665    0.021665    0.021681    0.000000    0.000000    0.000000
  113.788772    0.019825    0.019825    0.019389    0.000000    0.000000    0.000000
  116.783213    0.017720    0.017720    0.018836    0.000000    0.000000    0.000000
  119.777655    0.014375    0.014375    0.015951    0.000000    0.000000    0.000000
  122.772096    0.013831    0.013831    0.012455    0.000000    0.000000    0.000000
  125.766538    0.012822    0.012822    0.014662    0.000000    0.000000    0.000000
  128.760979    0.013895    0.013895    0.015285    0.000000    0.000000    0.000000
  131.755420    0.012682    0.012682    0.012891    0.000000    0.000000    0.000000
  134.749862    0.010701    0.010701    0.012037    0.000000    0.000000    0.000000
  137.744303    0.011196    0.011196    0.011214    0.000000    0.000000    0.000000
  140.738744    0.010449    0.010449    0.009586    0.000000    0.000000    0.000000
  143.733186    0.009597    0.009597    0.009719    0.000000    0.000000    0.000000
  146.727627    0.007879    0.007879    0.008067    0.000000    0.000000    0.000000
  149.722069    0.009458    0.009458    0.008861    0.000000    0.000000    0.000000
  152.716510    0.008177    0.008177    0.008575    0.000000    0.000000    0.000000
  155.710951    0.007872    0.007872    0.009278    0.000000    0.000000    0.000000
  158.705393    0.006519    0.006519    0.006486    0.000000    0.000000    0.000000
  161.699834    0.006442    0.006442    0.006119    0.000000    0.000000    0.000000
  164.694275    0.005146    0.005146    0.005033    0.000000    0.000000    0.000000
  167.688717    0.005250    0.005250    0.004976    0.000000    0.000000    0.000000
  170.683158    0.004433    0.004433    0.004361    0.000000    0.000000    0.000000
  173.677600    0.004074    0.004074    0.004222    0.000000    0.000000    0.000000
  176.672041    0.003855    0.003855    0.003881    0.000000    0.000000    0.000000
  179.666482    0.003088    0.003088    0.002995    0.000000    0.000000    0.000000
  182.660924    0.003114    0.003114    0.003179    0.000000    0.000000    0.000000
  185.655365    0.003642    0.003642    0.003577    0.000000    0.000000    0.000000
  188.649806    0.002127    0.002127    0.002207    0.000000    0.000000    0.000000
  191.644248    0.003143    0.003143    0.003267    0.000000    0.000000    0.000000
  194.638689    0.002772    0.002772    0.002641    0.000000    0.000000    0.000000
  197.633131    0.002728    0.002728    0.002480    0.000000    0.000000    0.000000
  200.627572    0.001948    0.001948    0.001800    0.000000    0.000000    0.000000
  203.622013    0.002171    0.002171    0.002148    0.000000    0.000000    0.000000
  206.616455    0.001858    0.001858    0.001664    0.000000    0.000000    0.000000
  209.610896    0.002051    0.002051    0.001851    0.000000    0.000000    0.000000
  212.605337    0.001351    0.001351    0.001339    0.000000    0.000000    0.000000
  215.599779    0.001233    0.001233    0.001209    0.000000    0.000000    0.000000
  218.594220    0.001074    0.001074    0.001207    0.000000    0.000000    0.000000
  221.588662    0.001168    0.001168    0.001233    0.000000    0.000000    0.000000
  224.583103    0.000972    0.000972    0.001028    0.000000    0.000000    0.000000
  227.577544    0.000830    0.000830    0.000681    0.000000    0.000000    0.000000
  230.571986    0.000465    0.000465    0.000509    0.000000    0.000000    0.000000
  233.566427    0.000558    0.000558    0.000680    0.000000    0.000000    0.000000
  236.560868    0.000435    0.000435    0.000439    0.000000    0.000000    0.000000
  239.555310    0.000248    0.000248    0.000267    0.000000    0.000000    0.000000
  242.549751    0.000079    0.000079    0.000170    0.000000    0.000000    0.000000
  245.544192    0.000051    0.000051    0.000052    0.000000    0.000000    0.000000
  248.538634    0.000000    0.000000    0.000000    0.000000    0.000000    0.000000
  251.533075    0.000000    0.000000    0.000000    0.000000    0.000000    0.000000
  254.527517    0.000000    0.000000    0.000000    0.000000    0.000000    0.000000
  257.521958    0.000000    0.000000    0.000000    0.000000    0.000000    0.000000
  260.516399    0.000000    0.000000    0.000000    0.000000    0.000000    0.000000
  263.510841    0.000000    0.000000    0.000000    0.000000    0.000000    0.000000
  266.505282    0.000000    0.000000    0.000000    0.000000    0.000000    0.000000
  269.499723    0.000000    0.000000    0.000000    0.000000    0.000000    0.000000
  272.494165    0.000000    0.000000    0.000000    0.000000    0.000000    0.000000
  275.488606    0.000000    0.000000    0.000000    0.000000    0.000000    0.000000
  278.483048    0.000000    0.000000    0.000000    0.000000    0.000000    0.000000
  281.477489    0.000000    0.000000    0.000000    0.000000    0.000000    0.000000
  284.471930    0.000000    0.000000    0.000000    0.000000    0.000000    0.000000
  287.466372    0.000000    0.000000    0.000000    0.000000    0.000000    0.000000
  290.460813    0.000000    0.000000    0.000000    0.000000    0.000000    0.000000
  293.455254    0.000000    0.000000    0.000000    0.000000    0.000000    0.000000
  296.449696    0.000000    0.000000    0.000000    0.000000    0.000000    0.000000

  frequency dependent      REAL DIELECTRIC FUNCTION (RPA, no local field effects)
     E(ev)      X         Y         Z        XY        YZ        ZX
  --------------------------------------------------------------------------------------
    0.000000    3.413910    3.413910    3.711370    0.000000    0.000000    0.000000
    2.994441    3.776520    3.776520    4.010363    0.000000    0.000000    0.000000
    5.988883    4.010877    4.010877    4.713517    0.000000    0.000000    0.000000
    8.983324    2.331159    2.331159    5.031951    0.000000    0.000000    0.000000
   11.977765    1.552246    1.552246    0.165119    0.000000    0.000000    0.000000
   14.972207    1.995414    1.995414    1.265292    0.000000    0.000000    0.000000
   17.966648   -0.078834   -0.078834   -0.274294    0.000000    0.000000    0.000000
   20.961090    0.098636    0.098636   -0.029186    0.000000    0.000000    0.000000
   23.955531    0.349048    0.349048    0.320344    0.000000    0.000000    0.000000
   26.949972    0.508853    0.508853    0.431094    0.000000    0.000000    0.000000
   29.944414    0.723799    0.723799    0.641136    0.000000    0.000000    0.000000
   32.938855    0.706939    0.706939    0.776927    0.000000    0.000000    0.000000
   35.933296    0.598412    0.598412    0.598899    0.000000    0.000000    0.000000
   38.927738    0.723997    0.723997    0.746828    0.000000    0.000000    0.000000
   41.922179    0.794440    0.794440    0.755151    0.000000    0.000000    0.000000
   44.916621    0.819084    0.819084    0.804360    0.000000    0.000000    0.000000
   47.911062    0.791180    0.791180    0.823870    0.000000    0.000000    0.000000
   50.905503    0.810479    0.810479    0.825874    0.000000    0.000000    0.000000
   53.899945    0.847570    0.847570    0.786613    0.000000    0.000000    0.000000
   56.894386    0.746150    0.746150    0.819054    0.000000    0.000000    0.000000
   59.888827    0.786245    0.786245    0.798399    0.000000    0.000000    0.000000
   62.883269    0.747060    0.747060    0.727354    0.000000    0.000000    0.000000
   65.877710    0.771620    0.771620    0.768511    0.000000    0.000000    0.000000
   68.872152    0.769156    0.769156    0.759507    0.000000    0.000000    0.000000
   71.866593    0.792803    0.792803    0.800321    0.000000    0.000000    0.000000
   74.861034    0.828398    0.828398    0.835563    0.000000    0.000000    0.000000
   77.855476    0.835912    0.835912    0.843065    0.000000    0.000000    0.000000
   80.849917    0.847364    0.847364    0.846885    0.000000    0.000000    0.000000
   83.844358    0.855679    0.855679    0.848112    0.000000    0.000000    0.000000
   86.838800    0.857426    0.857426    0.850498    0.000000    0.000000    0.000000
   89.833241    0.857573    0.857573    0.858448    0.000000    0.000000    0.000000
   92.827683    0.887261    0.887261    0.886890    0.000000    0.000000    0.000000
   95.822124    0.899323    0.899323    0.897446    0.000000    0.000000    0.000000
   98.816565    0.902316    0.902316    0.902703    0.000000    0.000000    0.000000
  101.811007    0.907364    0.907364    0.909322    0.000000    0.000000    0.000000
  104.805448    0.914900    0.914900    0.915884    0.000000    0.000000    0.000000
  107.799889    0.918252    0.918252    0.920036    0.000000    0.000000    0.000000
  110.794331    0.922424    0.922424    0.924640    0.000000    0.000000    0.000000
  113.788772    0.926313    0.926313    0.927184    0.000000    0.000000    0.000000
  116.783213    0.930987    0.930987    0.931705    0.000000    0.000000    0.000000
  119.777655    0.933782    0.933782    0.933785    0.000000    0.000000    0.000000
  122.772096    0.937951    0.937951    0.938142    0.000000    0.000000    0.000000
  125.766538    0.939737    0.939737    0.939545    0.000000    0.000000    0.000000
  128.760979    0.942747    0.942747    0.943215    0.000000    0.000000    0.000000
  131.755420    0.944430    0.944430    0.944675    0.000000    0.000000    0.000000
  134.749862    0.945976    0.945976    0.945764    0.000000    0.000000    0.000000
  137.744303    0.948303    0.948303    0.948591    0.000000    0.000000    0.000000
  140.738744    0.949812    0.949812    0.950221    0.000000    0.000000    0.000000
  143.733186    0.953047    0.953047    0.952724    0.000000    0.000000    0.000000
  146.727627    0.953964    0.953964    0.954097    0.000000    0.000000    0.000000
  149.722069    0.956043    0.956043    0.956281    0.000000    0.000000    0.000000
  152.716510    0.957975    0.957975    0.957832    0.000000    0.000000    0.000000
  155.710951    0.958387    0.958387    0.958227    0.000000    0.000000    0.000000
  158.705393    0.959675    0.959675    0.959637    0.000000    0.000000    0.000000
  161.699834    0.961543    0.961543    0.961838    0.000000    0.000000    0.000000
  164.694275    0.963133    0.963133    0.963056    0.000000    0.000000    0.000000
  167.688717    0.964422    0.964422    0.964666    0.000000    0.000000    0.000000
  170.683158    0.965387    0.965387    0.965229    0.000000    0.000000    0.000000
  173.677600    0.966372    0.966372    0.966052    0.000000    0.000000    0.000000
  176.672041    0.967389    0.967389    0.967389    0.000000    0.000000    0.000000
  179.666482    0.968501    0.968501    0.968496    0.000000    0.000000    0.000000
  182.660924    0.969999    0.969999    0.969866    0.000000    0.000000    0.000000
  185.655365    0.970705    0.970705    0.970809    0.000000    0.000000    0.000000
  188.649806    0.972109    0.972109    0.972087    0.000000    0.000000    0.000000
  191.644248    0.972366    0.972366    0.972390    0.000000    0.000000    0.000000
  194.638689    0.973489    0.973489    0.973557    0.000000    0.000000    0.000000
  197.633131    0.974240    0.974240    0.974233    0.000000    0.000000    0.000000
  200.627572    0.974865    0.974865    0.975147    0.000000    0.000000    0.000000
  203.622013    0.975717    0.975717    0.975613    0.000000    0.000000    0.000000
  206.616455    0.976848    0.976848    0.976752    0.000000    0.000000    0.000000
  209.610896    0.977212    0.977212    0.977244    0.000000    0.000000    0.000000
  212.605337    0.977732    0.977732    0.977766    0.000000    0.000000    0.000000
  215.599779    0.978406    0.978406    0.978384    0.000000    0.000000    0.000000
  218.594220    0.978917    0.978917    0.978931    0.000000    0.000000    0.000000
  221.588662    0.979379    0.979379    0.979265    0.000000    0.000000    0.000000
  224.583103    0.980005    0.980005    0.979963    0.000000    0.000000    0.000000
  227.577544    0.980746    0.980746    0.980715    0.000000    0.000000    0.000000
  230.571986    0.981048    0.981048    0.981153    0.000000    0.000000    0.000000
  233.566427    0.981677    0.981677    0.981634    0.000000    0.000000    0.000000
  236.560868    0.982094    0.982094    0.982082    0.000000    0.000000    0.000000
  239.555310    0.982578    0.982578    0.982550    0.000000    0.000000    0.000000
  242.549751    0.983090    0.983090    0.983078    0.000000    0.000000    0.000000
  245.544192    0.983585    0.983585    0.983572    0.000000    0.000000    0.000000
  248.538634    0.984148    0.984148    0.984133    0.000000    0.000000    0.000000
  251.533075    0.984625    0.984625    0.984609    0.000000    0.000000    0.000000
  254.527517    0.985060    0.985060    0.985044    0.000000    0.000000    0.000000
  257.521958    0.985467    0.985467    0.985451    0.000000    0.000000    0.000000
  260.516399    0.985852    0.985852    0.985836    0.000000    0.000000    0.000000
  263.510841    0.986217    0.986217    0.986201    0.000000    0.000000    0.000000
  266.505282    0.986566    0.986566    0.986549    0.000000    0.000000    0.000000
  269.499723    0.986898    0.986898    0.986882    0.000000    0.000000    0.000000
  272.494165    0.987217    0.987217    0.987201    0.000000    0.000000    0.000000
  275.488606    0.987523    0.987523    0.987506    0.000000    0.000000    0.000000
  278.483048    0.987816    0.987816    0.987800    0.000000    0.000000    0.000000
  281.477489    0.988098    0.988098    0.988082    0.000000    0.000000    0.000000
  284.471930    0.988370    0.988370    0.988354    0.000000    0.000000    0.000000
  287.466372    0.988631    0.988631    0.988615    0.000000    0.000000    0.000000
  290.460813    0.988884    0.988884    0.988868    0.000000    0.000000    0.000000
  293.455254    0.989127    0.989127    0.989111    0.000000    0.000000    0.000000
  296.449696    0.989362    0.989362    0.989346    0.000000    0.000000    0.000000

 The outermost node in the RPA dielectric function lies at epsilon=  21.6


--------------------------------------------------------------------------------------------------------


    4ORBIT:  cpu time    0.00: real time    0.00



 total charge     

# of ion     s       p       d       tot
----------------------------------------
  1        0.851   1.075  10.392  12.317
  2        0.836   1.098  10.384  12.318
  3        1.584   3.550   0.000   5.134
  4        1.584   3.550   0.000   5.134
  5        1.587   3.563   0.000   5.150
  6        1.587   3.563   0.000   5.150
------------------------------------------------
tot        8.029  16.399  20.776  45.204


 total amount of memory used by VASP on root node 227687. kBytes
========================================================================

   base      :    30000. kBytes
   nonl-proj :    23353. kBytes
   fftplans  :     3765. kBytes
   grid      :     5169. kBytes
   one-center:       93. kBytes
   HF        :      129. kBytes
   nonlr-proj:     2056. kBytes
   wavefun   :   163122. kBytes

  
  
 General timing and accounting informations for this job:
 ========================================================
  
                  Total CPU time used (sec):    69133.227
                            User time (sec):    68862.752
                          System time (sec):      270.477
                         Elapsed time (sec):    69176.078
  
                   Maximum memory used (kb):           0.
                   Average memory used (kb):           0.
  
                          Minor page faults:     36723482
                          Major page faults:            0
                 Voluntary context switches:        31665
