 vasp.5.2.2 15Apr09 complex 
 executed on             LinuxPgi date 2010.01.03  01:35:59
 running on    8 nodes
 distr:  one band on    1 nodes,    8 groups


--------------------------------------------------------------------------------------------------------


 INCAR:
 POTCAR:   PAW_PBE Sn_d 06Sep2000                 
 POTCAR:   PAW_PBE O 08Apr2002                    
 POTCAR:   PAW_PBE Sn_d 06Sep2000                 
   VRHFIN =Sn: s2p2                                                             
   LEXCH  = PE                                                                  
   EATOM  =  1893.0782 eV,  139.1373 Ry                                         
                                                                                
   TITEL  = PAW_PBE Sn_d 06Sep2000                                              
   LULTRA =        F    use ultrasoft PP ?                                      
   IUNSCR =        1    unscreen: 0-lin 1-nonlin 2-no                           
   RPACOR =    2.300    partial core radius                                     
   POMASS =  118.710; ZVAL   =   14.000    mass and valenz                      
   RCORE  =    2.500    outmost cutoff radius                                   
   RWIGS  =    2.960; RWIGS  =    1.566    wigner-seitz radius (au A)           
   ENMAX  =  241.090; ENMIN  =  180.817 eV                                      
   ICORE  =        3    local potential                                         
   LCOR   =        T    correct aug charges                                     
   LPAW   =        T    paw PP                                                  
   EAUG   =  439.825                                                            
   DEXC   =    -.001                                                            
   RMAX   =    2.969    core radius for proj-oper                               
   RAUG   =    1.300    factor for augmentation sphere                          
   RDEP   =    2.659    radius for radial grids                                 
   QCUT   =   -4.209; QGAM   =    8.419    optimization parameters              
                                                                                
   Description                                                                  
     l     E      TYP  RCUT    TYP  RCUT                                        
     2   .000     23  2.500                                                     
     2  -.400     23  2.500                                                     
     0   .000     23  2.500                                                     
     0  1.000     23  2.500                                                     
     1   .000     23  2.500                                                     
     1   .000     23  2.500                                                     
     3  -.100      7  2.500                                                     
  local pseudopotential read in
  partial core-charges read in
  atomic valenz-charges read in
  non local Contribution for L=            2  read in
    real space projection operators read in
  non local Contribution for L=            2  read in
    real space projection operators read in
  non local Contribution for L=            0  read in
    real space projection operators read in
  non local Contribution for L=            0  read in
    real space projection operators read in
  non local Contribution for L=            1  read in
    real space projection operators read in
  non local Contribution for L=            1  read in
    real space projection operators read in
    PAW grid and wavefunctions read in

   number of l-projection  operators is LMAX  =            6
   number of lm-projection operators is LMMAX =           18

 POTCAR:   PAW_PBE O 08Apr2002                    
   VRHFIN =O: s2p4                                                              
   LEXCH  = PE                                                                  
   EATOM  =   432.3788 eV,   31.7789 Ry                                         
                                                                                
   TITEL  = PAW_PBE O 08Apr2002                                                 
   LULTRA =        F    use ultrasoft PP ?                                      
   IUNSCR =        0    unscreen: 0-lin 1-nonlin 2-no                           
   RPACOR =     .000    partial core radius                                     
   POMASS =   16.000; ZVAL   =    6.000    mass and valenz                      
   RCORE  =    1.520    outmost cutoff radius                                   
   RWIGS  =    1.550; RWIGS  =     .820    wigner-seitz radius (au A)           
   ENMAX  =  400.000; ENMIN  =  300.000 eV                                      
   ICORE  =        2    local potential                                         
   LCOR   =        T    correct aug charges                                     
   LPAW   =        T    paw PP                                                  
   EAUG   =  605.392                                                            
   DEXC   =     .000                                                            
   RMAX   =    2.264    core radius for proj-oper                               
   RAUG   =    1.300    factor for augmentation sphere                          
   RDEP   =    1.550    radius for radial grids                                 
   QCUT   =   -5.520; QGAM   =   11.041    optimization parameters              
                                                                                
   Description                                                                  
     l     E      TYP  RCUT    TYP  RCUT                                        
     0   .000     23  1.200                                                     
     0  -.700     23  1.200                                                     
     1   .000     23  1.520                                                     
     1   .600     23  1.520                                                     
     2   .000      7  1.500                                                     
  local pseudopotential read in
  atomic valenz-charges read in
  non local Contribution for L=            0  read in
    real space projection operators read in
  non local Contribution for L=            0  read in
    real space projection operators read in
  non local Contribution for L=            1  read in
    real space projection operators read in
  non local Contribution for L=            1  read in
    real space projection operators read in
    PAW grid and wavefunctions read in

   number of l-projection  operators is LMAX  =            4
   number of lm-projection operators is LMMAX =            8

 PAW_PBE Sn_d 06Sep2000                 :
 energy of atom  1       EATOM=-1893.0782
 kinetic energy error for atom=    0.0047 (will be added to EATOM!!)
 PAW_PBE O 08Apr2002                    :
 energy of atom  2       EATOM= -432.3788
 kinetic energy error for atom=    0.1156 (will be added to EATOM!!)


 POSCAR:  POSCAR by pos_vscal                    
  positions in direct lattice
  velocities in cartesian coordinates
 exchange correlation table for  LEXCH =        8
   RHO(1)=    0.500       N(1)  =     2000
   RHO(2)=  100.500       N(2)  =     4000



--------------------------------------------------------------------------------------------------------


 ion  position               nearest neighbor table
   1  0.000  0.000  0.000 -   3 2.060   4 2.060   5 2.064   6 2.064   5 2.064   6 2.064   2 3.727   2 3.727
                              2 3.727   2 3.727   2 3.727   2 3.727   2 3.727   2 3.727
   2  0.500  0.500  0.500 -   5 2.060   6 2.060   3 2.064   4 2.064   3 2.064   4 2.064   1 3.727   1 3.727
                              1 3.727   1 3.727   1 3.727   1 3.727   1 3.727   1 3.727
   3  0.306  0.306  0.000 -   1 2.060   2 2.064   2 2.064
   4  0.694  0.694  0.000 -   1 2.060   2 2.064   2 2.064
   5  0.806  0.194  0.500 -   2 2.060   1 2.064   1 2.064
   6  0.194  0.806  0.500 -   2 2.060   1 2.064   1 2.064

  LATTYP: Found a simple tetragonal cell.
 ALAT       =     4.7608068246
 C/A-ratio  =     0.6714716020
  
  Lattice vectors:
  
 A1 = (   4.7608068246,   0.0000000000,   0.0000000000)
 A2 = (   0.0000000000,   4.7608068246,   0.0000000000)
 A3 = (   0.0000000000,   0.0000000000,   3.1967465854)
 Subroutine PRICEL returns:
 Original cell was already a primitive cell.
 

Analysis of symmetry for initial positions (statically):

 Routine SETGRP: Setting up the symmetry group for a 
 simple tetragonal supercell.


 Subroutine GETGRP returns: Found 16 space group operations
 (whereof  8 operations were pure point group operations)
 out of a pool of 16 trial point group operations.


The static configuration has the point symmetry D_2h.
 The point group associated with its full space group is D_4h.

Analysis of symmetry for dynamics (positions and initial velocities):

 Subroutine DYNSYM returns: Found 16 space group operations
 (whereof  8 operations were pure point group operations)
 out of a pool of 16 trial space group operations
 (whereof  8 operations were pure point group operations)
 and found also     1 'primitive' translations


The dynamic configuration has the point symmetry D_2h.
 The point group associated with its full space group is D_4h.


 KPOINTS: Automatic generation                    

Automatic generation of k-mesh.
 
 Subroutine IBZKPT returns following result:
 ===========================================
 
 Found     60 irreducible k-points:
 
 Following reciprocal coordinates:
            Coordinates               Weight
  0.000000  0.000000  0.000000      1.000000
  0.166667  0.000000  0.000000      4.000000
  0.333333  0.000000  0.000000      4.000000
  0.500000  0.000000  0.000000      2.000000
  0.166667  0.166667  0.000000      4.000000
  0.333333  0.166667  0.000000      8.000000
  0.500000  0.166667  0.000000      4.000000
  0.333333  0.333333  0.000000      4.000000
  0.500000  0.333333  0.000000      4.000000
  0.500000  0.500000  0.000000      1.000000
  0.000000  0.000000  0.100000      2.000000
  0.166667  0.000000  0.100000      8.000000
  0.333333  0.000000  0.100000      8.000000
  0.500000  0.000000  0.100000      4.000000
  0.166667  0.166667  0.100000      8.000000
  0.333333  0.166667  0.100000     16.000000
  0.500000  0.166667  0.100000      8.000000
  0.333333  0.333333  0.100000      8.000000
  0.500000  0.333333  0.100000      8.000000
  0.500000  0.500000  0.100000      2.000000
  0.000000  0.000000  0.200000      2.000000
  0.166667  0.000000  0.200000      8.000000
  0.333333  0.000000  0.200000      8.000000
  0.500000  0.000000  0.200000      4.000000
  0.166667  0.166667  0.200000      8.000000
  0.333333  0.166667  0.200000     16.000000
  0.500000  0.166667  0.200000      8.000000
  0.333333  0.333333  0.200000      8.000000
  0.500000  0.333333  0.200000      8.000000
  0.500000  0.500000  0.200000      2.000000
  0.000000  0.000000  0.300000      2.000000
  0.166667  0.000000  0.300000      8.000000
  0.333333  0.000000  0.300000      8.000000
  0.500000  0.000000  0.300000      4.000000
  0.166667  0.166667  0.300000      8.000000
  0.333333  0.166667  0.300000     16.000000
  0.500000  0.166667  0.300000      8.000000
  0.333333  0.333333  0.300000      8.000000
  0.500000  0.333333  0.300000      8.000000
  0.500000  0.500000  0.300000      2.000000
  0.000000  0.000000  0.400000      2.000000
  0.166667  0.000000  0.400000      8.000000
  0.333333  0.000000  0.400000      8.000000
  0.500000  0.000000  0.400000      4.000000
  0.166667  0.166667  0.400000      8.000000
  0.333333  0.166667  0.400000     16.000000
  0.500000  0.166667  0.400000      8.000000
  0.333333  0.333333  0.400000      8.000000
  0.500000  0.333333  0.400000      8.000000
  0.500000  0.500000  0.400000      2.000000
  0.000000  0.000000  0.500000      1.000000
  0.166667  0.000000  0.500000      4.000000
  0.333333  0.000000  0.500000      4.000000
  0.500000  0.000000  0.500000      2.000000
  0.166667  0.166667  0.500000      4.000000
  0.333333  0.166667  0.500000      8.000000
  0.500000  0.166667  0.500000      4.000000
  0.333333  0.333333  0.500000      4.000000
  0.500000  0.333333  0.500000      4.000000
  0.500000  0.500000  0.500000      1.000000
 
 Following cartesian coordinates:
            Coordinates               Weight
  0.000000  0.000000  0.000000      1.000000
  0.166789  0.000000  0.000000      4.000000
  0.333577  0.000000  0.000000      4.000000
  0.500366  0.000000  0.000000      2.000000
  0.166789  0.166789  0.000000      4.000000
  0.333577  0.166789  0.000000      8.000000
  0.500366  0.166789  0.000000      4.000000
  0.333577  0.333577  0.000000      4.000000
  0.500366  0.333577  0.000000      4.000000
  0.500366  0.500366  0.000000      1.000000
  0.000000  0.000000  0.149036      2.000000
  0.166789  0.000000  0.149036      8.000000
  0.333577  0.000000  0.149036      8.000000
  0.500366  0.000000  0.149036      4.000000
  0.166789  0.166789  0.149036      8.000000
  0.333577  0.166789  0.149036     16.000000
  0.500366  0.166789  0.149036      8.000000
  0.333577  0.333577  0.149036      8.000000
  0.500366  0.333577  0.149036      8.000000
  0.500366  0.500366  0.149036      2.000000
  0.000000  0.000000  0.298071      2.000000
  0.166789  0.000000  0.298071      8.000000
  0.333577  0.000000  0.298071      8.000000
  0.500366  0.000000  0.298071      4.000000
  0.166789  0.166789  0.298071      8.000000
  0.333577  0.166789  0.298071     16.000000
  0.500366  0.166789  0.298071      8.000000
  0.333577  0.333577  0.298071      8.000000
  0.500366  0.333577  0.298071      8.000000
  0.500366  0.500366  0.298071      2.000000
  0.000000  0.000000  0.447107      2.000000
  0.166789  0.000000  0.447107      8.000000
  0.333577  0.000000  0.447107      8.000000
  0.500366  0.000000  0.447107      4.000000
  0.166789  0.166789  0.447107      8.000000
  0.333577  0.166789  0.447107     16.000000
  0.500366  0.166789  0.447107      8.000000
  0.333577  0.333577  0.447107      8.000000
  0.500366  0.333577  0.447107      8.000000
  0.500366  0.500366  0.447107      2.000000
  0.000000  0.000000  0.596142      2.000000
  0.166789  0.000000  0.596142      8.000000
  0.333577  0.000000  0.596142      8.000000
  0.500366  0.000000  0.596142      4.000000
  0.166789  0.166789  0.596142      8.000000
  0.333577  0.166789  0.596142     16.000000
  0.500366  0.166789  0.596142      8.000000
  0.333577  0.333577  0.596142      8.000000
  0.500366  0.333577  0.596142      8.000000
  0.500366  0.500366  0.596142      2.000000
  0.000000  0.000000  0.745178      1.000000
  0.166789  0.000000  0.745178      4.000000
  0.333577  0.000000  0.745178      4.000000
  0.500366  0.000000  0.745178      2.000000
  0.166789  0.166789  0.745178      4.000000
  0.333577  0.166789  0.745178      8.000000
  0.500366  0.166789  0.745178      4.000000
  0.333577  0.333577  0.745178      4.000000
  0.500366  0.333577  0.745178      4.000000
  0.500366  0.500366  0.745178      1.000000
 
 
 Subroutine IBZKPT_HF returns following result:
 ==============================================
 
 Found    360 k-points in 1st BZ
 the following    360 k-points will be used (e.g. in the exchange kernel)
 Following reciprocal coordinates:   # in IRBZ
  0.000000  0.000000  0.000000       1
  0.166667  0.000000  0.000000       2
  0.333333  0.000000  0.000000       3
  0.500000  0.000000  0.000000       4
  0.166667  0.166667  0.000000       5
  0.333333  0.166667  0.000000       6
  0.500000  0.166667  0.000000       7
  0.333333  0.333333  0.000000       8
  0.500000  0.333333  0.000000       9
  0.500000  0.500000  0.000000      10
  0.000000  0.000000  0.100000      11
  0.166667  0.000000  0.100000      12
  0.333333  0.000000  0.100000      13
  0.500000  0.000000  0.100000      14
  0.166667  0.166667  0.100000      15
  0.333333  0.166667  0.100000      16
  0.500000  0.166667  0.100000      17
  0.333333  0.333333  0.100000      18
  0.500000  0.333333  0.100000      19
  0.500000  0.500000  0.100000      20
  0.000000  0.000000  0.200000      21
  0.166667  0.000000  0.200000      22
  0.333333  0.000000  0.200000      23
  0.500000  0.000000  0.200000      24
  0.166667  0.166667  0.200000      25
  0.333333  0.166667  0.200000      26
  0.500000  0.166667  0.200000      27
  0.333333  0.333333  0.200000      28
  0.500000  0.333333  0.200000      29
  0.500000  0.500000  0.200000      30
  0.000000  0.000000  0.300000      31
  0.166667  0.000000  0.300000      32
  0.333333  0.000000  0.300000      33
  0.500000  0.000000  0.300000      34
  0.166667  0.166667  0.300000      35
  0.333333  0.166667  0.300000      36
  0.500000  0.166667  0.300000      37
  0.333333  0.333333  0.300000      38
  0.500000  0.333333  0.300000      39
  0.500000  0.500000  0.300000      40
  0.000000  0.000000  0.400000      41
  0.166667  0.000000  0.400000      42
  0.333333  0.000000  0.400000      43
  0.500000  0.000000  0.400000      44
  0.166667  0.166667  0.400000      45
  0.333333  0.166667  0.400000      46
  0.500000  0.166667  0.400000      47
  0.333333  0.333333  0.400000      48
  0.500000  0.333333  0.400000      49
  0.500000  0.500000  0.400000      50
  0.000000  0.000000  0.500000      51
  0.166667  0.000000  0.500000      52
  0.333333  0.000000  0.500000      53
  0.500000  0.000000  0.500000      54
  0.166667  0.166667  0.500000      55
  0.333333  0.166667  0.500000      56
  0.500000  0.166667  0.500000      57
  0.333333  0.333333  0.500000      58
  0.500000  0.333333  0.500000      59
  0.500000  0.500000  0.500000      60
 -0.166667  0.000000  0.000000       2
  0.000000  0.166667  0.000000       2
  0.000000 -0.166667  0.000000       2
 -0.333333  0.000000  0.000000       3
  0.000000  0.333333  0.000000       3
  0.000000 -0.333333  0.000000       3
  0.000000  0.500000  0.000000       4
 -0.166667 -0.166667  0.000000       5
 -0.166667  0.166667  0.000000       5
  0.166667 -0.166667  0.000000       5
 -0.333333 -0.166667  0.000000       6
  0.166667  0.333333  0.000000       6
 -0.166667 -0.333333  0.000000       6
 -0.166667  0.333333  0.000000       6
  0.166667 -0.333333  0.000000       6
 -0.333333  0.166667  0.000000       6
  0.333333 -0.166667  0.000000       6
 -0.500000 -0.166667  0.000000       7
  0.166667  0.500000  0.000000       7
 -0.166667 -0.500000  0.000000       7
 -0.333333 -0.333333  0.000000       8
 -0.333333  0.333333  0.000000       8
  0.333333 -0.333333  0.000000       8
 -0.500000 -0.333333  0.000000       9
  0.333333  0.500000  0.000000       9
 -0.333333 -0.500000  0.000000       9
  0.000000  0.000000 -0.100000      11
 -0.166667  0.000000 -0.100000      12
 -0.166667  0.000000  0.100000      12
  0.166667  0.000000 -0.100000      12
  0.000000  0.166667 -0.100000      12
  0.000000 -0.166667  0.100000      12
  0.000000 -0.166667 -0.100000      12
  0.000000  0.166667  0.100000      12
 -0.333333  0.000000 -0.100000      13
 -0.333333  0.000000  0.100000      13
  0.333333  0.000000 -0.100000      13
  0.000000  0.333333 -0.100000      13
  0.000000 -0.333333  0.100000      13
  0.000000 -0.333333 -0.100000      13
  0.000000  0.333333  0.100000      13
 -0.500000  0.000000 -0.100000      14
  0.000000  0.500000 -0.100000      14
  0.000000 -0.500000  0.100000      14
 -0.166667 -0.166667 -0.100000      15
 -0.166667 -0.166667  0.100000      15
  0.166667  0.166667 -0.100000      15
 -0.166667  0.166667  0.100000      15
  0.166667 -0.166667 -0.100000      15
  0.166667 -0.166667  0.100000      15
 -0.166667  0.166667 -0.100000      15
 -0.333333 -0.166667 -0.100000      16
 -0.333333 -0.166667  0.100000      16
  0.333333  0.166667 -0.100000      16
  0.166667  0.333333 -0.100000      16
 -0.166667 -0.333333  0.100000      16
 -0.166667 -0.333333 -0.100000      16
  0.166667  0.333333  0.100000      16
 -0.166667  0.333333  0.100000      16
  0.166667 -0.333333 -0.100000      16
  0.166667 -0.333333  0.100000      16
 -0.166667  0.333333 -0.100000      16
 -0.333333  0.166667 -0.100000      16
  0.333333 -0.166667  0.100000      16
  0.333333 -0.166667 -0.100000      16
 -0.333333  0.166667  0.100000      16
 -0.500000 -0.166667 -0.100000      17
 -0.500000 -0.166667  0.100000      17
  0.500000  0.166667 -0.100000      17
  0.166667  0.500000 -0.100000      17
 -0.166667 -0.500000  0.100000      17
 -0.166667 -0.500000 -0.100000      17
  0.166667  0.500000  0.100000      17
 -0.333333 -0.333333 -0.100000      18
 -0.333333 -0.333333  0.100000      18
  0.333333  0.333333 -0.100000      18
 -0.333333  0.333333  0.100000      18
  0.333333 -0.333333 -0.100000      18
  0.333333 -0.333333  0.100000      18
 -0.333333  0.333333 -0.100000      18
 -0.500000 -0.333333 -0.100000      19
 -0.500000 -0.333333  0.100000      19
  0.500000  0.333333 -0.100000      19
  0.333333  0.500000 -0.100000      19
 -0.333333 -0.500000  0.100000      19
 -0.333333 -0.500000 -0.100000      19
  0.333333  0.500000  0.100000      19
 -0.500000 -0.500000 -0.100000      20
  0.000000  0.000000 -0.200000      21
 -0.166667  0.000000 -0.200000      22
 -0.166667  0.000000  0.200000      22
  0.166667  0.000000 -0.200000      22
  0.000000  0.166667 -0.200000      22
  0.000000 -0.166667  0.200000      22
  0.000000 -0.166667 -0.200000      22
  0.000000  0.166667  0.200000      22
 -0.333333  0.000000 -0.200000      23
 -0.333333  0.000000  0.200000      23
  0.333333  0.000000 -0.200000      23
  0.000000  0.333333 -0.200000      23
  0.000000 -0.333333  0.200000      23
  0.000000 -0.333333 -0.200000      23
  0.000000  0.333333  0.200000      23
 -0.500000  0.000000 -0.200000      24
  0.000000  0.500000 -0.200000      24
  0.000000 -0.500000  0.200000      24
 -0.166667 -0.166667 -0.200000      25
 -0.166667 -0.166667  0.200000      25
  0.166667  0.166667 -0.200000      25
 -0.166667  0.166667  0.200000      25
  0.166667 -0.166667 -0.200000      25
  0.166667 -0.166667  0.200000      25
 -0.166667  0.166667 -0.200000      25
 -0.333333 -0.166667 -0.200000      26
 -0.333333 -0.166667  0.200000      26
  0.333333  0.166667 -0.200000      26
  0.166667  0.333333 -0.200000      26
 -0.166667 -0.333333  0.200000      26
 -0.166667 -0.333333 -0.200000      26
  0.166667  0.333333  0.200000      26
 -0.166667  0.333333  0.200000      26
  0.166667 -0.333333 -0.200000      26
  0.166667 -0.333333  0.200000      26
 -0.166667  0.333333 -0.200000      26
 -0.333333  0.166667 -0.200000      26
  0.333333 -0.166667  0.200000      26
  0.333333 -0.166667 -0.200000      26
 -0.333333  0.166667  0.200000      26
 -0.500000 -0.166667 -0.200000      27
 -0.500000 -0.166667  0.200000      27
  0.500000  0.166667 -0.200000      27
  0.166667  0.500000 -0.200000      27
 -0.166667 -0.500000  0.200000      27
 -0.166667 -0.500000 -0.200000      27
  0.166667  0.500000  0.200000      27
 -0.333333 -0.333333 -0.200000      28
 -0.333333 -0.333333  0.200000      28
  0.333333  0.333333 -0.200000      28
 -0.333333  0.333333  0.200000      28
  0.333333 -0.333333 -0.200000      28
  0.333333 -0.333333  0.200000      28
 -0.333333  0.333333 -0.200000      28
 -0.500000 -0.333333 -0.200000      29
 -0.500000 -0.333333  0.200000      29
  0.500000  0.333333 -0.200000      29
  0.333333  0.500000 -0.200000      29
 -0.333333 -0.500000  0.200000      29
 -0.333333 -0.500000 -0.200000      29
  0.333333  0.500000  0.200000      29
 -0.500000 -0.500000 -0.200000      30
  0.000000  0.000000 -0.300000      31
 -0.166667  0.000000 -0.300000      32
 -0.166667  0.000000  0.300000      32
  0.166667  0.000000 -0.300000      32
  0.000000  0.166667 -0.300000      32
  0.000000 -0.166667  0.300000      32
  0.000000 -0.166667 -0.300000      32
  0.000000  0.166667  0.300000      32
 -0.333333  0.000000 -0.300000      33
 -0.333333  0.000000  0.300000      33
  0.333333  0.000000 -0.300000      33
  0.000000  0.333333 -0.300000      33
  0.000000 -0.333333  0.300000      33
  0.000000 -0.333333 -0.300000      33
  0.000000  0.333333  0.300000      33
 -0.500000  0.000000 -0.300000      34
  0.000000  0.500000 -0.300000      34
  0.000000 -0.500000  0.300000      34
 -0.166667 -0.166667 -0.300000      35
 -0.166667 -0.166667  0.300000      35
  0.166667  0.166667 -0.300000      35
 -0.166667  0.166667  0.300000      35
  0.166667 -0.166667 -0.300000      35
  0.166667 -0.166667  0.300000      35
 -0.166667  0.166667 -0.300000      35
 -0.333333 -0.166667 -0.300000      36
 -0.333333 -0.166667  0.300000      36
  0.333333  0.166667 -0.300000      36
  0.166667  0.333333 -0.300000      36
 -0.166667 -0.333333  0.300000      36
 -0.166667 -0.333333 -0.300000      36
  0.166667  0.333333  0.300000      36
 -0.166667  0.333333  0.300000      36
  0.166667 -0.333333 -0.300000      36
  0.166667 -0.333333  0.300000      36
 -0.166667  0.333333 -0.300000      36
 -0.333333  0.166667 -0.300000      36
  0.333333 -0.166667  0.300000      36
  0.333333 -0.166667 -0.300000      36
 -0.333333  0.166667  0.300000      36
 -0.500000 -0.166667 -0.300000      37
 -0.500000 -0.166667  0.300000      37
  0.500000  0.166667 -0.300000      37
  0.166667  0.500000 -0.300000      37
 -0.166667 -0.500000  0.300000      37
 -0.166667 -0.500000 -0.300000      37
  0.166667  0.500000  0.300000      37
 -0.333333 -0.333333 -0.300000      38
 -0.333333 -0.333333  0.300000      38
  0.333333  0.333333 -0.300000      38
 -0.333333  0.333333  0.300000      38
  0.333333 -0.333333 -0.300000      38
  0.333333 -0.333333  0.300000      38
 -0.333333  0.333333 -0.300000      38
 -0.500000 -0.333333 -0.300000      39
 -0.500000 -0.333333  0.300000      39
  0.500000  0.333333 -0.300000      39
  0.333333  0.500000 -0.300000      39
 -0.333333 -0.500000  0.300000      39
 -0.333333 -0.500000 -0.300000      39
  0.333333  0.500000  0.300000      39
 -0.500000 -0.500000 -0.300000      40
  0.000000  0.000000 -0.400000      41
 -0.166667  0.000000 -0.400000      42
 -0.166667  0.000000  0.400000      42
  0.166667  0.000000 -0.400000      42
  0.000000  0.166667 -0.400000      42
  0.000000 -0.166667  0.400000      42
  0.000000 -0.166667 -0.400000      42
  0.000000  0.166667  0.400000      42
 -0.333333  0.000000 -0.400000      43
 -0.333333  0.000000  0.400000      43
  0.333333  0.000000 -0.400000      43
  0.000000  0.333333 -0.400000      43
  0.000000 -0.333333  0.400000      43
  0.000000 -0.333333 -0.400000      43
  0.000000  0.333333  0.400000      43
 -0.500000  0.000000 -0.400000      44
  0.000000  0.500000 -0.400000      44
  0.000000 -0.500000  0.400000      44
 -0.166667 -0.166667 -0.400000      45
 -0.166667 -0.166667  0.400000      45
  0.166667  0.166667 -0.400000      45
 -0.166667  0.166667  0.400000      45
  0.166667 -0.166667 -0.400000      45
  0.166667 -0.166667  0.400000      45
 -0.166667  0.166667 -0.400000      45
 -0.333333 -0.166667 -0.400000      46
 -0.333333 -0.166667  0.400000      46
  0.333333  0.166667 -0.400000      46
  0.166667  0.333333 -0.400000      46
 -0.166667 -0.333333  0.400000      46
 -0.166667 -0.333333 -0.400000      46
  0.166667  0.333333  0.400000      46
 -0.166667  0.333333  0.400000      46
  0.166667 -0.333333 -0.400000      46
  0.166667 -0.333333  0.400000      46
 -0.166667  0.333333 -0.400000      46
 -0.333333  0.166667 -0.400000      46
  0.333333 -0.166667  0.400000      46
  0.333333 -0.166667 -0.400000      46
 -0.333333  0.166667  0.400000      46
 -0.500000 -0.166667 -0.400000      47
 -0.500000 -0.166667  0.400000      47
  0.500000  0.166667 -0.400000      47
  0.166667  0.500000 -0.400000      47
 -0.166667 -0.500000  0.400000      47
 -0.166667 -0.500000 -0.400000      47
  0.166667  0.500000  0.400000      47
 -0.333333 -0.333333 -0.400000      48
 -0.333333 -0.333333  0.400000      48
  0.333333  0.333333 -0.400000      48
 -0.333333  0.333333  0.400000      48
  0.333333 -0.333333 -0.400000      48
  0.333333 -0.333333  0.400000      48
 -0.333333  0.333333 -0.400000      48
 -0.500000 -0.333333 -0.400000      49
 -0.500000 -0.333333  0.400000      49
  0.500000  0.333333 -0.400000      49
  0.333333  0.500000 -0.400000      49
 -0.333333 -0.500000  0.400000      49
 -0.333333 -0.500000 -0.400000      49
  0.333333  0.500000  0.400000      49
 -0.500000 -0.500000 -0.400000      50
 -0.166667  0.000000 -0.500000      52
  0.000000  0.166667 -0.500000      52
  0.000000 -0.166667  0.500000      52
 -0.333333  0.000000 -0.500000      53
  0.000000  0.333333 -0.500000      53
  0.000000 -0.333333  0.500000      53
  0.000000  0.500000 -0.500000      54
 -0.166667 -0.166667 -0.500000      55
 -0.166667  0.166667  0.500000      55
  0.166667 -0.166667 -0.500000      55
 -0.333333 -0.166667 -0.500000      56
  0.166667  0.333333 -0.500000      56
 -0.166667 -0.333333  0.500000      56
 -0.166667  0.333333  0.500000      56
  0.166667 -0.333333 -0.500000      56
 -0.333333  0.166667 -0.500000      56
  0.333333 -0.166667  0.500000      56
 -0.500000 -0.166667 -0.500000      57
  0.166667  0.500000 -0.500000      57
 -0.166667 -0.500000  0.500000      57
 -0.333333 -0.333333 -0.500000      58
 -0.333333  0.333333  0.500000      58
  0.333333 -0.333333 -0.500000      58
 -0.500000 -0.333333 -0.500000      59
  0.333333  0.500000 -0.500000      59
 -0.333333 -0.500000  0.500000      59


--------------------------------------------------------------------------------------------------------




 Dimension of arrays:
   k-points           NKPTS =     60   k-points in BZ     NKDIM =    360   number of bands    NBANDS=    320
   number of dos      NEDOS =    301   number of ions     NIONS =      6
   non local maximal  LDIM  =      6   non local SUM 2l+1 LMDIM =     18
   total plane-waves  NPLWV =  24576
   max r-space proj   IRMAX =      1   max aug-charges    IRDMAX= 121365
   dimension x,y,z NGX =    32 NGY =   32 NGZ =   24
   dimension x,y,z NGXF=    64 NGYF=   64 NGZF=   48
   support grid    NGXF=   128 NGYF=  128 NGZF=   96
   ions per type =               2   4
 NGX,Y,Z   is equivalent  to a cutoff of  11.17, 11.17, 12.48 a.u.
 NGXF,Y,Z  is equivalent  to a cutoff of  22.35, 22.35, 24.96 a.u.


 I would recommend the setting:
   dimension x,y,z NGX =    31 NGY =   31 NGZ =   21
 SYSTEM =  ZnO                                     
 POSCAR =   POSCAR by pos_vscal                    

 Startparameter for this run:
   NWRITE =      2    write-flag & timer
   PREC   = accura    medium, high low
   ISTART =      1    job   : 0-new  1-cont  2-samecut
   ICHARG =      0    charge: 1-file 2-atom 10-const
   ISPIN  =      1    spin polarized calculation?
   LNONCOLLINEAR =      F non collinear calculations
   LSORBIT =      F    spin-orbit coupling
   INIWAV =      1    electr: 0-lowe 1-rand  2-diag
   LASPH  =      F    aspherical Exc in radial PAW
   METAGGA=      F    non-selfconsistent MetaGGA calc.

 Electronic Relaxation 1
   ENCUT  =  400.0 eV  29.40 Ry    5.42 a.u.   7.76  7.76  5.21*2*pi/ulx,y,z
   ENINI  =  400.0     initial cutoff
   ENAUG  =  605.4 eV  augmentation charge cutoff
   NELM   =      1;   NELMIN=  2; NELMDL=  0     # of ELM steps 
   EDIFF  = 0.1E-03   stopping-criterion for ELM
   LREAL  =      F    real-space projection
   LCOMPAT=      F    compatible to vasp.4.4
   LREAL_COMPAT= F    compatible to vasp.4.5.1-3
   GGA_COMPAT  = T    GGA compatible to vasp.4.4-vasp.4.6
   LMAXPAW     = -100 max onsite density
   LMAXMIX     =    4 max onsite mixed and CHGCAR
   VOSKOWN=      0    Vosko Wilk Nusair interpolation
   ROPT   =    0.00000   0.00000
 Ionic relaxation
   EDIFFG = 0.1E-02   stopping-criterion for IOM
   NSW    =      0    number of steps for IOM
   NBLOCK =      1;   KBLOCK =      1    inner block; outer block 
   IBRION =     -1    ionic relax: 0-MD 1-quasi-New 2-CG
   NFREE  =      0    steps in history (QN), initial steepest desc. (CG)
   ISIF   =      0    stress and relaxation
   IWAVPR =     10    prediction:  0-non 1-charg 2-wave 3-comb
   ISYM   =      3    0-nonsym 1-usesym 2-fastsym
   LCORR  =      T    Harris-Foulkes like correction to forces

   POTIM  = 0.5000    time-step for ionic-motion
   TEIN   =    0.0    initial temperature
   TEBEG  =    0.0;   TEEND  =   0.0 temperature during run
   SMASS  =  -3.00    Nose mass-parameter (am)
   estimated Nose-frequenzy (Omega)   =  0.10E-29 period in steps =****** mass=  -0.518E-27a.u.
   NPACO  =    256;   APACO  = 16.0  distance and # of slots for P.C.
   PSTRESS=    0.0 pullay stress

  Mass of Ions in am
   POMASS = 118.71 16.00
  Ionic Valenz
   ZVAL   =  14.00  6.00
  Atomic Wigner-Seitz radii
   RWIGS  =   1.20  1.20
   NELECT =      52.0000    total number of electrons
   NUPDOWN=      -1.0000    fix difference up-down

 DOS related values:
   EMIN   =  10.00;   EMAX   =-10.00  energy-range for DOS
   EFERMI =   0.00
   ISMEAR =     0;   SIGMA  =   0.01  broadening in eV -4-tet -1-fermi 0-gaus

 Electronic relaxation 2 (details)
   IALGO  =     38    algorithm
   LDIAG  =      T    sub-space diagonalisation
   IMIX   =      4    mixing-type and parameters
     AMIX     =   0.80;   BMIX     =  1.00
     AMIX_MAG =   0.80;   BMIX_MAG =  1.00
     AMIN     =   0.10
     WC   =   100.;   INIMIX=   1;  MIXPRE=   1

 Intra band minimization:
   WEIMIN = 0.0000     energy-eigenvalue tresh-hold
   EBREAK =  0.78E-07  absolut break condition
   DEPER  =   0.30     relativ break condition  

   TIME   =   0.40     timestep for ELM

  volume/ion in A,a.u.               =      12.08        81.49
  Fermi-wavevector in a.u.,A,eV,Ry     =   1.465726  2.769821 29.230119  2.148353
  Thomas-Fermi vector in A             =   2.581549

 Write flags
   LWAVE  =      T    write WAVECAR
   LCHARG =      T    write CHGCAR
   LVTOT  =      F    write LOCPOT, local potential
   LELF   =      F    write electronic localiz. function (ELF)
   LORBIT =     10    0 simple, 1 ext, 2 COOP (PROOUT)


 Dipole corrections
   LMONO  =      F    monopole corrections only (constant potential shift)
   LDIPOL =      F    correct potential (dipole corrections)
   IDIPOL =      0    1-x, 2-y, 3-z, 4-all directions 
   EPSILON=  1.0000000 bulk dielectric constant

 Exchange correlation treatment:
   GGA     =    --    GGA type
   LEXCH   =     8    internal setting for exchange type
   VOSKOWN=      0    Vosko Wilk Nusair interpolation
   EXXOEP  =     0    0=HF, 1=EXX-LHF (local Hartree Fock) 2=EXX OEP
   LHFCALC =     T    Hartree Fock is set to
   LRHFCALC=     F    long range Hartree Fock
   LRSCOR  =     F    long range correlation only (use DFT for short range part)
   LTHOMAS =     F    Thomas Fermi screening in HF
   LMODELHF=     F    short range full HF, long range fraction AEXX
   ENCUTFOCK=  -1.0   cutoff for exchange potential in eV
   ENCUT4O =  -1.0   cutoff for four orbital integrals eV
   LMAXFOCK=     4    L truncation for augmentation on plane wave grid
   LMAXFOCKAE=   4    L truncation for all-electron charge restoration on plane wave grid
   NMAXFOCKAE=   1    number of basis functions for all-electron charge restoration
   NKREDX  =     2    reduce k-point grid by
   NKREDY  =     2    reduce k-point grid by
   NKREDZ  =     2    reduce k-point grid by
   SHIFTRED=     F    shift reduced grid of Gamma
   HFKIDENT=     F    idential grid for each k-point
   ODDONLY =     F    use only odd q-grid points
   EVENONLY=     F    use only even q-grid points
   HFALPHA =   -1.0000 decay constant for conv. correction
   AEXX    =    1.0000 exact exchange contribution
   HFSCREEN=    0.0000 screening length (either q_TF or 0.3 A-1)
   HFSCREENC=   0.0000 screening length for correlation (either q_TF or 0.3 A-1)
   HFRCUT  =    0.0000 spherical cutoff for potential kernel
   ALDAX   =    0.0000 LDA exchange part
   AGGAX   =    0.0000 GGA exchange part
   ALDAC   =    0.0000 LDA correlation
   AGGAC   =    0.0000 GGA correlation

 Linear response parameters
   LEPSILON=     F    determine dielectric tensor
   LRPA    =     F    only Hartree local field effects (RPA)
   LNABLA  =     F    use nabla operator in PAW spheres
   LVEL    =     F    velocity operator in full k-point grid
   LINTERFAST=   F  fast interpolation
   KINTER  =     0    interpolate to denser k-point grid
   CSHIFT  =0.1000    complex shift for real part using Kramers Kronig
   OMEGAMAX=  -1.0    maximum frequency

 Orbital magnetization related:
   ORBITALMAG=     F  switch on orbital magnetization
   LCHIMAG   =     F  perturbation theory with respect to B field

 Response functions by sum over occupied states:
   ALGO    =GW0       execute GW part
   LRPA    =     T    random phase (Hartree local field effects only)
   LTCTE   =     F    use test-charge test-electron dielectric function
   LTETE   =     F    use test-electron test-electron dielectric function
   L2ORDER =     F    2nd order terms only
   LGWLF   =     F    use screened W for local field effects
   ENCUTGW = 200.0    cutoff for response function in eV
   ENCUTGWSOFT = 200.0 soft cutoff for Coulomb kernel in GW response function in eV
   ENCUTLF =  -1.0    cutoff for local field effects
   LMAXMP2 =    -1    maximum L for one center terms
   SCISSOR =   0.0    scissor correction
   NOMEGA  =    64    number of frequencies
   NOMEGAR =    64    number of frequencies along real axis
   NBANDSGW=    -1    number of bands for which selfenergy shift is calculated
   NBANDSLF=    -1    number of bands for electron-hole treatment
   NELM    =     1    number of iterations in solving QP equation
   DIM     =     3    dimensionality of system (0=0D molecules, 3=3D)
   ANTIRES =     0    antiresonant part (0) no TDA (1) w=0 exact (2) accurate
   LUSEW   =     F    use W in vertex corrections (instead of screened exchange pot.)
   OMEGAMAX= -30.0    maximum frequency
   OMEGATL =-200.0    maximum frequency of tail
   OMEGAGRID=     0    grid type (0 default)
   CSHIFT  =-0.100    complex shift used in evaluation of response functions
   SELFENERGY=   F    calculate selfenergy instead of QP shifts
   LSPECTRAL =   T    use spectral functions                   

   ODDONLYGW =   F    avoid all even points for polarizability 
   EVENONLYGW=   F    avoid all odd  points for polarizability 
   NKREDLFX  =   1   NKREDLFY  =   1   NKREDLFZ  =   1

   TELESCOPE =   0   use telescope k-point sampling




--------------------------------------------------------------------------------------------------------


 Static calculation
 charge density and potential will be updated during run
 non-spin polarized calculation
 Variant of blocked Davidson
 Davidson routine will perform the subspace rotation
 perform sub-space diagonalisation
    after iterative eigenvector-optimisation
 modified Broyden-mixing scheme, WC =      100.0
 initial mixing is a Kerker type mixing with AMIX =  0.8000 and BMIX =      1.0000
 Hartree-type preconditioning will be used
 using additional bands           294
 reciprocal scheme for non local part
 use partial core corrections
 calculate Harris-corrections to forces 
   (improved forces if not selfconsistent)
 use gradient corrections 
 use of overlap-Matrix (Vanderbilt PP)
 Gauss-broadening in eV      SIGMA  =   0.01


--------------------------------------------------------------------------------------------------------


  energy-cutoff  :      400.00
  volume of cell :       72.4552
      direct lattice vectors                 reciprocal lattice vectors
     4.760806825  0.000000000  0.000000000     0.210048430  0.000000000  0.000000000
     0.000000000  4.760806825  0.000000000     0.000000000  0.210048430  0.000000000
     0.000000000  0.000000000  3.196746585     0.000000000  0.000000000  0.312818040

  length of vectors
     4.760806825  4.760806825  3.196746585     0.210048430  0.210048430  0.312818040



 old parameters found on file WAVECAR:
  energy-cutoff  :      400.00
  volume of cell :       72.4552
      direct lattice vectors                 reciprocal lattice vectors
     4.760806825  0.000000000  0.000000000     0.210048430  0.000000000  0.000000000
     0.000000000  4.760806825  0.000000000     0.000000000  0.210048430  0.000000000
     0.000000000  0.000000000  3.196746585     0.000000000  0.000000000  0.312818040

  length of vectors


 k-points in units of 2pi/SCALE and weight: Automatic generation                    
   0.00000000  0.00000000  0.00000000       0.003
   0.16678861  0.00000000  0.00000000       0.011
   0.33357721  0.00000000  0.00000000       0.011
   0.50036582  0.00000000  0.00000000       0.006
   0.16678861  0.16678861  0.00000000       0.011
   0.33357721  0.16678861  0.00000000       0.022
   0.50036582  0.16678861  0.00000000       0.011
   0.33357721  0.33357721  0.00000000       0.011
   0.50036582  0.33357721  0.00000000       0.011
   0.50036582  0.50036582  0.00000000       0.003
   0.00000000  0.00000000  0.14903559       0.006
   0.16678861  0.00000000  0.14903559       0.022
   0.33357721  0.00000000  0.14903559       0.022
   0.50036582  0.00000000  0.14903559       0.011
   0.16678861  0.16678861  0.14903559       0.022
   0.33357721  0.16678861  0.14903559       0.044
   0.50036582  0.16678861  0.14903559       0.022
   0.33357721  0.33357721  0.14903559       0.022
   0.50036582  0.33357721  0.14903559       0.022
   0.50036582  0.50036582  0.14903559       0.006
   0.00000000  0.00000000  0.29807117       0.006
   0.16678861  0.00000000  0.29807117       0.022
   0.33357721  0.00000000  0.29807117       0.022
   0.50036582  0.00000000  0.29807117       0.011
   0.16678861  0.16678861  0.29807117       0.022
   0.33357721  0.16678861  0.29807117       0.044
   0.50036582  0.16678861  0.29807117       0.022
   0.33357721  0.33357721  0.29807117       0.022
   0.50036582  0.33357721  0.29807117       0.022
   0.50036582  0.50036582  0.29807117       0.006
   0.00000000  0.00000000  0.44710676       0.006
   0.16678861  0.00000000  0.44710676       0.022
   0.33357721  0.00000000  0.44710676       0.022
   0.50036582  0.00000000  0.44710676       0.011
   0.16678861  0.16678861  0.44710676       0.022
   0.33357721  0.16678861  0.44710676       0.044
   0.50036582  0.16678861  0.44710676       0.022
   0.33357721  0.33357721  0.44710676       0.022
   0.50036582  0.33357721  0.44710676       0.022
   0.50036582  0.50036582  0.44710676       0.006
   0.00000000  0.00000000  0.59614234       0.006
   0.16678861  0.00000000  0.59614234       0.022
   0.33357721  0.00000000  0.59614234       0.022
   0.50036582  0.00000000  0.59614234       0.011
   0.16678861  0.16678861  0.59614234       0.022
   0.33357721  0.16678861  0.59614234       0.044
   0.50036582  0.16678861  0.59614234       0.022
   0.33357721  0.33357721  0.59614234       0.022
   0.50036582  0.33357721  0.59614234       0.022
   0.50036582  0.50036582  0.59614234       0.006
   0.00000000  0.00000000  0.74517793       0.003
   0.16678861  0.00000000  0.74517793       0.011
   0.33357721  0.00000000  0.74517793       0.011
   0.50036582  0.00000000  0.74517793       0.006
   0.16678861  0.16678861  0.74517793       0.011
   0.33357721  0.16678861  0.74517793       0.022
   0.50036582  0.16678861  0.74517793       0.011
   0.33357721  0.33357721  0.74517793       0.011
   0.50036582  0.33357721  0.74517793       0.011
   0.50036582  0.50036582  0.74517793       0.003

 k-points in reciprocal lattice and weights: Automatic generation                    
   0.00000000  0.00000000  0.00000000       0.003
   0.16666667  0.00000000  0.00000000       0.011
   0.33333333  0.00000000  0.00000000       0.011
   0.50000000  0.00000000  0.00000000       0.006
   0.16666667  0.16666667  0.00000000       0.011
   0.33333333  0.16666667  0.00000000       0.022
   0.50000000  0.16666667  0.00000000       0.011
   0.33333333  0.33333333  0.00000000       0.011
   0.50000000  0.33333333  0.00000000       0.011
   0.50000000  0.50000000  0.00000000       0.003
   0.00000000  0.00000000  0.10000000       0.006
   0.16666667  0.00000000  0.10000000       0.022
   0.33333333  0.00000000  0.10000000       0.022
   0.50000000  0.00000000  0.10000000       0.011
   0.16666667  0.16666667  0.10000000       0.022
   0.33333333  0.16666667  0.10000000       0.044
   0.50000000  0.16666667  0.10000000       0.022
   0.33333333  0.33333333  0.10000000       0.022
   0.50000000  0.33333333  0.10000000       0.022
   0.50000000  0.50000000  0.10000000       0.006
   0.00000000  0.00000000  0.20000000       0.006
   0.16666667  0.00000000  0.20000000       0.022
   0.33333333  0.00000000  0.20000000       0.022
   0.50000000  0.00000000  0.20000000       0.011
   0.16666667  0.16666667  0.20000000       0.022
   0.33333333  0.16666667  0.20000000       0.044
   0.50000000  0.16666667  0.20000000       0.022
   0.33333333  0.33333333  0.20000000       0.022
   0.50000000  0.33333333  0.20000000       0.022
   0.50000000  0.50000000  0.20000000       0.006
   0.00000000  0.00000000  0.30000000       0.006
   0.16666667  0.00000000  0.30000000       0.022
   0.33333333  0.00000000  0.30000000       0.022
   0.50000000  0.00000000  0.30000000       0.011
   0.16666667  0.16666667  0.30000000       0.022
   0.33333333  0.16666667  0.30000000       0.044
   0.50000000  0.16666667  0.30000000       0.022
   0.33333333  0.33333333  0.30000000       0.022
   0.50000000  0.33333333  0.30000000       0.022
   0.50000000  0.50000000  0.30000000       0.006
   0.00000000  0.00000000  0.40000000       0.006
   0.16666667  0.00000000  0.40000000       0.022
   0.33333333  0.00000000  0.40000000       0.022
   0.50000000  0.00000000  0.40000000       0.011
   0.16666667  0.16666667  0.40000000       0.022
   0.33333333  0.16666667  0.40000000       0.044
   0.50000000  0.16666667  0.40000000       0.022
   0.33333333  0.33333333  0.40000000       0.022
   0.50000000  0.33333333  0.40000000       0.022
   0.50000000  0.50000000  0.40000000       0.006
   0.00000000  0.00000000  0.50000000       0.003
   0.16666667  0.00000000  0.50000000       0.011
   0.33333333  0.00000000  0.50000000       0.011
   0.50000000  0.00000000  0.50000000       0.006
   0.16666667  0.16666667  0.50000000       0.011
   0.33333333  0.16666667  0.50000000       0.022
   0.50000000  0.16666667  0.50000000       0.011
   0.33333333  0.33333333  0.50000000       0.011
   0.50000000  0.33333333  0.50000000       0.011
   0.50000000  0.50000000  0.50000000       0.003

 position of ions in fractional coordinates (direct lattice) 
   0.00000000  0.00000000  0.00000000
   0.50000000  0.50000000  0.50000000
   0.30599180  0.30599180  0.00000000
   0.69400820  0.69400820  0.00000000
   0.80599180  0.19400820  0.50000000
   0.19400820  0.80599180  0.50000000

 position of ions in cartesian coordinates  (Angst):
   0.00000000  0.00000000  0.00000000
   2.38040341  2.38040341  1.59837329
   1.45676785  1.45676785  0.00000000
   3.30403898  3.30403898  0.00000000
   3.83717126  0.92363557  1.59837329
   0.92363557  3.83717126  1.59837329



--------------------------------------------------------------------------------------------------------


 k-point  1 :  0.00000.00000.0000  plane waves:    1299
 k-point  2 :  0.16670.00000.0000  plane waves:    1319
 k-point  3 :  0.33330.00000.0000  plane waves:    1322
 k-point  4 :  0.50000.00000.0000  plane waves:    1336
 k-point  5 :  0.16670.16670.0000  plane waves:    1325
 k-point  6 :  0.33330.16670.0000  plane waves:    1315
 k-point  7 :  0.50000.16670.0000  plane waves:    1324
 k-point  8 :  0.33330.33330.0000  plane waves:    1317
 k-point  9 :  0.50000.33330.0000  plane waves:    1302
 k-point 10 :  0.50000.50000.0000  plane waves:    1308
 k-point 11 :  0.00000.00000.1000  plane waves:    1323
 k-point 12 :  0.16670.00000.1000  plane waves:    1309
 k-point 13 :  0.33330.00000.1000  plane waves:    1325
 k-point 14 :  0.50000.00000.1000  plane waves:    1326
 k-point 15 :  0.16670.16670.1000  plane waves:    1315
 k-point 16 :  0.33330.16670.1000  plane waves:    1318
 k-point 17 :  0.50000.16670.1000  plane waves:    1320
 k-point 18 :  0.33330.33330.1000  plane waves:    1303
 k-point 19 :  0.50000.33330.1000  plane waves:    1306
 k-point 20 :  0.50000.50000.1000  plane waves:    1312
 k-point 21 :  0.00000.00000.2000  plane waves:    1319
 k-point 22 :  0.16670.00000.2000  plane waves:    1314
 k-point 23 :  0.33330.00000.2000  plane waves:    1314
 k-point 24 :  0.50000.00000.2000  plane waves:    1310
 k-point 25 :  0.16670.16670.2000  plane waves:    1316
 k-point 26 :  0.33330.16670.2000  plane waves:    1315
 k-point 27 :  0.50000.16670.2000  plane waves:    1312
 k-point 28 :  0.33330.33330.2000  plane waves:    1302
 k-point 29 :  0.50000.33330.2000  plane waves:    1318
 k-point 30 :  0.50000.50000.2000  plane waves:    1324
 k-point 31 :  0.00000.00000.3000  plane waves:    1314
 k-point 32 :  0.16670.00000.3000  plane waves:    1324
 k-point 33 :  0.33330.00000.3000  plane waves:    1318
 k-point 34 :  0.50000.00000.3000  plane waves:    1314
 k-point 35 :  0.16670.16670.3000  plane waves:    1315
 k-point 36 :  0.33330.16670.3000  plane waves:    1318
 k-point 37 :  0.50000.16670.3000  plane waves:    1318
 k-point 38 :  0.33330.33330.3000  plane waves:    1315
 k-point 39 :  0.50000.33330.3000  plane waves:    1310
 k-point 40 :  0.50000.50000.3000  plane waves:    1308
 k-point 41 :  0.00000.00000.4000  plane waves:    1322
 k-point 42 :  0.16670.00000.4000  plane waves:    1315
 k-point 43 :  0.33330.00000.4000  plane waves:    1310
 k-point 44 :  0.50000.00000.4000  plane waves:    1320
 k-point 45 :  0.16670.16670.4000  plane waves:    1306
 k-point 46 :  0.33330.16670.4000  plane waves:    1322
 k-point 47 :  0.50000.16670.4000  plane waves:    1324
 k-point 48 :  0.33330.33330.4000  plane waves:    1325
 k-point 49 :  0.50000.33330.4000  plane waves:    1318
 k-point 50 :  0.50000.50000.4000  plane waves:    1320
 k-point 51 :  0.00000.00000.5000  plane waves:    1306
 k-point 52 :  0.16670.00000.5000  plane waves:    1308
 k-point 53 :  0.33330.00000.5000  plane waves:    1314
 k-point 54 :  0.50000.00000.5000  plane waves:    1328
 k-point 55 :  0.16670.16670.5000  plane waves:    1304
 k-point 56 :  0.33330.16670.5000  plane waves:    1322
 k-point 57 :  0.50000.16670.5000  plane waves:    1324
 k-point 58 :  0.33330.33330.5000  plane waves:    1330
 k-point 59 :  0.50000.33330.5000  plane waves:    1324
 k-point 60 :  0.50000.50000.5000  plane waves:    1344

 maximum and minimum number of plane-waves per node :    1344   1299

 maximum number of plane-waves:    1344
 maximal index in each direction: 
   IXMAX=  7   IYMAX=  7   IZMAX=  5
   IXMIN= -8   IYMIN= -8   IZMIN= -5

 NGX is ok and might be reduce to  32
 NGY is ok and might be reduce to  32
 NGZ is ok and might be reduce to  22

 serial   3D FFT for wavefunctions
 parallel 3D FFT for charge:
    minimum data exchange during FFTs selected (reduces bandwidth)


 total amount of memory used by VASP on root node 119158. kBytes
========================================================================

   base      :    30000. kBytes
   nonl-proj :    23353. kBytes
   fftplans  :     3765. kBytes
   grid      :     5169. kBytes
   one-center:       93. kBytes
   HF        :      259. kBytes
   nonlr-proj:     2145. kBytes
   wavefun   :    54374. kBytes

 Broyden mixing: mesh for mixing (old mesh)
   NGX = 15   NGY = 15   NGZ = 11
  (NGX  = 64   NGY  = 64   NGZ  = 48)
  gives a total of   2475 points

 charge density for first step will be calculated from the start-wavefunctions


--------------------------------------------------------------------------------------------------------


 Maximum index for augmentation-charges         14793 (set IRDMAX)


--------------------------------------------------------------------------------------------------------


 initial charge from wavefunction
    FEWALD:  cpu time    0.00: real time    0.00
 Response functions by sum over occupied states:
 ===============================================
   NOMEGA  =    64    number of frequencies
   NOMEGAR =    64    number of frequencies along real axis
   OMEGAMAX=  17.30   maximum frequency
   OMEGATL = 274.22   maximum frequency of tail
   CSHIFT  =  0.351   complex shift used in evaluation of response functions


 Energies w= 
 ============
   0.0   0.0   0.6   0.0   1.2   0.0   1.8   0.0   2.4   0.0
   2.9   0.0   3.5   0.0   4.1   0.0   4.6   0.0   5.2   0.0
   5.7   0.0   6.3   0.0   6.8   0.0   7.3   0.0   7.8   0.0
   8.3   0.0   8.9   0.0   9.4   0.0   9.8   0.0  10.3   0.0
  10.8   0.0  11.3   0.0  11.8   0.0  12.3   0.0  12.8   0.0
  13.3   0.0  13.8   0.0  14.3   0.0  14.8   0.0  15.4   0.0
  15.9   0.0  16.5   0.0  17.1   0.0  17.7   0.0  18.3   0.0
  18.9   0.0  19.6   0.0  20.3   0.0  21.0   0.0  21.8   0.0
  22.6   0.0  23.5   0.0  24.5   0.0  25.5   0.0  26.6   0.0
  27.8   0.0  29.2   0.0  30.6   0.0  32.3   0.0  34.1   0.0
  36.2   0.0  38.6   0.0  41.4   0.0  44.6   0.0  48.4   0.0
  53.0   0.0  58.7   0.0  65.8   0.0  75.1   0.0  87.5   0.0
 105.2   0.0 132.1   0.0 178.1   0.0 274.2   0.0


IMPORTANT INFORMATION: All symmetrisations will be switched off!
NOSYMM: (Re-)initialisation of all symmetry stuff for point group C_1.


 KPOINTS: Automatic generation                    

Automatic generation of k-mesh.
 
 Subroutine IBZKPT returns following result:
 ===========================================
 
 Found    360 irreducible k-points:
 
 Following reciprocal coordinates:
            Coordinates               Weight
  0.000000  0.000000  0.000000      1.000000
  0.166667  0.000000  0.000000      1.000000
  0.333333  0.000000  0.000000      1.000000
  0.500000  0.000000  0.000000      1.000000
 -0.333333  0.000000  0.000000      1.000000
 -0.166667  0.000000  0.000000      1.000000
  0.000000  0.166667  0.000000      1.000000
  0.166667  0.166667  0.000000      1.000000
  0.333333  0.166667  0.000000      1.000000
  0.500000  0.166667  0.000000      1.000000
 -0.333333  0.166667  0.000000      1.000000
 -0.166667  0.166667  0.000000      1.000000
  0.000000  0.333333  0.000000      1.000000
  0.166667  0.333333  0.000000      1.000000
  0.333333  0.333333  0.000000      1.000000
  0.500000  0.333333  0.000000      1.000000
 -0.333333  0.333333  0.000000      1.000000
 -0.166667  0.333333  0.000000      1.000000
  0.000000  0.500000  0.000000      1.000000
  0.166667  0.500000  0.000000      1.000000
  0.333333  0.500000  0.000000      1.000000
  0.500000  0.500000  0.000000      1.000000
 -0.333333  0.500000  0.000000      1.000000
 -0.166667  0.500000  0.000000      1.000000
  0.000000 -0.333333  0.000000      1.000000
  0.166667 -0.333333  0.000000      1.000000
  0.333333 -0.333333  0.000000      1.000000
  0.500000 -0.333333  0.000000      1.000000
 -0.333333 -0.333333  0.000000      1.000000
 -0.166667 -0.333333  0.000000      1.000000
  0.000000 -0.166667  0.000000      1.000000
  0.166667 -0.166667  0.000000      1.000000
  0.333333 -0.166667  0.000000      1.000000
  0.500000 -0.166667  0.000000      1.000000
 -0.333333 -0.166667  0.000000      1.000000
 -0.166667 -0.166667  0.000000      1.000000
  0.000000  0.000000  0.100000      1.000000
  0.166667  0.000000  0.100000      1.000000
  0.333333  0.000000  0.100000      1.000000
  0.500000  0.000000  0.100000      1.000000
 -0.333333  0.000000  0.100000      1.000000
 -0.166667  0.000000  0.100000      1.000000
  0.000000  0.166667  0.100000      1.000000
  0.166667  0.166667  0.100000      1.000000
  0.333333  0.166667  0.100000      1.000000
  0.500000  0.166667  0.100000      1.000000
 -0.333333  0.166667  0.100000      1.000000
 -0.166667  0.166667  0.100000      1.000000
  0.000000  0.333333  0.100000      1.000000
  0.166667  0.333333  0.100000      1.000000
  0.333333  0.333333  0.100000      1.000000
  0.500000  0.333333  0.100000      1.000000
 -0.333333  0.333333  0.100000      1.000000
 -0.166667  0.333333  0.100000      1.000000
  0.000000  0.500000  0.100000      1.000000
  0.166667  0.500000  0.100000      1.000000
  0.333333  0.500000  0.100000      1.000000
  0.500000  0.500000  0.100000      1.000000
 -0.333333  0.500000  0.100000      1.000000
 -0.166667  0.500000  0.100000      1.000000
  0.000000 -0.333333  0.100000      1.000000
  0.166667 -0.333333  0.100000      1.000000
  0.333333 -0.333333  0.100000      1.000000
  0.500000 -0.333333  0.100000      1.000000
 -0.333333 -0.333333  0.100000      1.000000
 -0.166667 -0.333333  0.100000      1.000000
  0.000000 -0.166667  0.100000      1.000000
  0.166667 -0.166667  0.100000      1.000000
  0.333333 -0.166667  0.100000      1.000000
  0.500000 -0.166667  0.100000      1.000000
 -0.333333 -0.166667  0.100000      1.000000
 -0.166667 -0.166667  0.100000      1.000000
  0.000000  0.000000  0.200000      1.000000
  0.166667  0.000000  0.200000      1.000000
  0.333333  0.000000  0.200000      1.000000
  0.500000  0.000000  0.200000      1.000000
 -0.333333  0.000000  0.200000      1.000000
 -0.166667  0.000000  0.200000      1.000000
  0.000000  0.166667  0.200000      1.000000
  0.166667  0.166667  0.200000      1.000000
  0.333333  0.166667  0.200000      1.000000
  0.500000  0.166667  0.200000      1.000000
 -0.333333  0.166667  0.200000      1.000000
 -0.166667  0.166667  0.200000      1.000000
  0.000000  0.333333  0.200000      1.000000
  0.166667  0.333333  0.200000      1.000000
  0.333333  0.333333  0.200000      1.000000
  0.500000  0.333333  0.200000      1.000000
 -0.333333  0.333333  0.200000      1.000000
 -0.166667  0.333333  0.200000      1.000000
  0.000000  0.500000  0.200000      1.000000
  0.166667  0.500000  0.200000      1.000000
  0.333333  0.500000  0.200000      1.000000
  0.500000  0.500000  0.200000      1.000000
 -0.333333  0.500000  0.200000      1.000000
 -0.166667  0.500000  0.200000      1.000000
  0.000000 -0.333333  0.200000      1.000000
  0.166667 -0.333333  0.200000      1.000000
  0.333333 -0.333333  0.200000      1.000000
  0.500000 -0.333333  0.200000      1.000000
 -0.333333 -0.333333  0.200000      1.000000
 -0.166667 -0.333333  0.200000      1.000000
  0.000000 -0.166667  0.200000      1.000000
  0.166667 -0.166667  0.200000      1.000000
  0.333333 -0.166667  0.200000      1.000000
  0.500000 -0.166667  0.200000      1.000000
 -0.333333 -0.166667  0.200000      1.000000
 -0.166667 -0.166667  0.200000      1.000000
  0.000000  0.000000  0.300000      1.000000
  0.166667  0.000000  0.300000      1.000000
  0.333333  0.000000  0.300000      1.000000
  0.500000  0.000000  0.300000      1.000000
 -0.333333  0.000000  0.300000      1.000000
 -0.166667  0.000000  0.300000      1.000000
  0.000000  0.166667  0.300000      1.000000
  0.166667  0.166667  0.300000      1.000000
  0.333333  0.166667  0.300000      1.000000
  0.500000  0.166667  0.300000      1.000000
 -0.333333  0.166667  0.300000      1.000000
 -0.166667  0.166667  0.300000      1.000000
  0.000000  0.333333  0.300000      1.000000
  0.166667  0.333333  0.300000      1.000000
  0.333333  0.333333  0.300000      1.000000
  0.500000  0.333333  0.300000      1.000000
 -0.333333  0.333333  0.300000      1.000000
 -0.166667  0.333333  0.300000      1.000000
  0.000000  0.500000  0.300000      1.000000
  0.166667  0.500000  0.300000      1.000000
  0.333333  0.500000  0.300000      1.000000
  0.500000  0.500000  0.300000      1.000000
 -0.333333  0.500000  0.300000      1.000000
 -0.166667  0.500000  0.300000      1.000000
  0.000000 -0.333333  0.300000      1.000000
  0.166667 -0.333333  0.300000      1.000000
  0.333333 -0.333333  0.300000      1.000000
  0.500000 -0.333333  0.300000      1.000000
 -0.333333 -0.333333  0.300000      1.000000
 -0.166667 -0.333333  0.300000      1.000000
  0.000000 -0.166667  0.300000      1.000000
  0.166667 -0.166667  0.300000      1.000000
  0.333333 -0.166667  0.300000      1.000000
  0.500000 -0.166667  0.300000      1.000000
 -0.333333 -0.166667  0.300000      1.000000
 -0.166667 -0.166667  0.300000      1.000000
  0.000000  0.000000  0.400000      1.000000
  0.166667  0.000000  0.400000      1.000000
  0.333333  0.000000  0.400000      1.000000
  0.500000  0.000000  0.400000      1.000000
 -0.333333  0.000000  0.400000      1.000000
 -0.166667  0.000000  0.400000      1.000000
  0.000000  0.166667  0.400000      1.000000
  0.166667  0.166667  0.400000      1.000000
  0.333333  0.166667  0.400000      1.000000
  0.500000  0.166667  0.400000      1.000000
 -0.333333  0.166667  0.400000      1.000000
 -0.166667  0.166667  0.400000      1.000000
  0.000000  0.333333  0.400000      1.000000
  0.166667  0.333333  0.400000      1.000000
  0.333333  0.333333  0.400000      1.000000
  0.500000  0.333333  0.400000      1.000000
 -0.333333  0.333333  0.400000      1.000000
 -0.166667  0.333333  0.400000      1.000000
  0.000000  0.500000  0.400000      1.000000
  0.166667  0.500000  0.400000      1.000000
  0.333333  0.500000  0.400000      1.000000
  0.500000  0.500000  0.400000      1.000000
 -0.333333  0.500000  0.400000      1.000000
 -0.166667  0.500000  0.400000      1.000000
  0.000000 -0.333333  0.400000      1.000000
  0.166667 -0.333333  0.400000      1.000000
  0.333333 -0.333333  0.400000      1.000000
  0.500000 -0.333333  0.400000      1.000000
 -0.333333 -0.333333  0.400000      1.000000
 -0.166667 -0.333333  0.400000      1.000000
  0.000000 -0.166667  0.400000      1.000000
  0.166667 -0.166667  0.400000      1.000000
  0.333333 -0.166667  0.400000      1.000000
  0.500000 -0.166667  0.400000      1.000000
 -0.333333 -0.166667  0.400000      1.000000
 -0.166667 -0.166667  0.400000      1.000000
  0.000000  0.000000  0.500000      1.000000
  0.166667  0.000000  0.500000      1.000000
  0.333333  0.000000  0.500000      1.000000
  0.500000  0.000000  0.500000      1.000000
 -0.333333  0.000000  0.500000      1.000000
 -0.166667  0.000000  0.500000      1.000000
  0.000000  0.166667  0.500000      1.000000
  0.166667  0.166667  0.500000      1.000000
  0.333333  0.166667  0.500000      1.000000
  0.500000  0.166667  0.500000      1.000000
 -0.333333  0.166667  0.500000      1.000000
 -0.166667  0.166667  0.500000      1.000000
  0.000000  0.333333  0.500000      1.000000
  0.166667  0.333333  0.500000      1.000000
  0.333333  0.333333  0.500000      1.000000
  0.500000  0.333333  0.500000      1.000000
 -0.333333  0.333333  0.500000      1.000000
 -0.166667  0.333333  0.500000      1.000000
  0.000000  0.500000  0.500000      1.000000
  0.166667  0.500000  0.500000      1.000000
  0.333333  0.500000  0.500000      1.000000
  0.500000  0.500000  0.500000      1.000000
 -0.333333  0.500000  0.500000      1.000000
 -0.166667  0.500000  0.500000      1.000000
  0.000000 -0.333333  0.500000      1.000000
  0.166667 -0.333333  0.500000      1.000000
  0.333333 -0.333333  0.500000      1.000000
  0.500000 -0.333333  0.500000      1.000000
 -0.333333 -0.333333  0.500000      1.000000
 -0.166667 -0.333333  0.500000      1.000000
  0.000000 -0.166667  0.500000      1.000000
  0.166667 -0.166667  0.500000      1.000000
  0.333333 -0.166667  0.500000      1.000000
  0.500000 -0.166667  0.500000      1.000000
 -0.333333 -0.166667  0.500000      1.000000
 -0.166667 -0.166667  0.500000      1.000000
  0.000000  0.000000 -0.400000      1.000000
  0.166667  0.000000 -0.400000      1.000000
  0.333333  0.000000 -0.400000      1.000000
  0.500000  0.000000 -0.400000      1.000000
 -0.333333  0.000000 -0.400000      1.000000
 -0.166667  0.000000 -0.400000      1.000000
  0.000000  0.166667 -0.400000      1.000000
  0.166667  0.166667 -0.400000      1.000000
  0.333333  0.166667 -0.400000      1.000000
  0.500000  0.166667 -0.400000      1.000000
 -0.333333  0.166667 -0.400000      1.000000
 -0.166667  0.166667 -0.400000      1.000000
  0.000000  0.333333 -0.400000      1.000000
  0.166667  0.333333 -0.400000      1.000000
  0.333333  0.333333 -0.400000      1.000000
  0.500000  0.333333 -0.400000      1.000000
 -0.333333  0.333333 -0.400000      1.000000
 -0.166667  0.333333 -0.400000      1.000000
  0.000000  0.500000 -0.400000      1.000000
  0.166667  0.500000 -0.400000      1.000000
  0.333333  0.500000 -0.400000      1.000000
  0.500000  0.500000 -0.400000      1.000000
 -0.333333  0.500000 -0.400000      1.000000
 -0.166667  0.500000 -0.400000      1.000000
  0.000000 -0.333333 -0.400000      1.000000
  0.166667 -0.333333 -0.400000      1.000000
  0.333333 -0.333333 -0.400000      1.000000
  0.500000 -0.333333 -0.400000      1.000000
 -0.333333 -0.333333 -0.400000      1.000000
 -0.166667 -0.333333 -0.400000      1.000000
  0.000000 -0.166667 -0.400000      1.000000
  0.166667 -0.166667 -0.400000      1.000000
  0.333333 -0.166667 -0.400000      1.000000
  0.500000 -0.166667 -0.400000      1.000000
 -0.333333 -0.166667 -0.400000      1.000000
 -0.166667 -0.166667 -0.400000      1.000000
  0.000000  0.000000 -0.300000      1.000000
  0.166667  0.000000 -0.300000      1.000000
  0.333333  0.000000 -0.300000      1.000000
  0.500000  0.000000 -0.300000      1.000000
 -0.333333  0.000000 -0.300000      1.000000
 -0.166667  0.000000 -0.300000      1.000000
  0.000000  0.166667 -0.300000      1.000000
  0.166667  0.166667 -0.300000      1.000000
  0.333333  0.166667 -0.300000      1.000000
  0.500000  0.166667 -0.300000      1.000000
 -0.333333  0.166667 -0.300000      1.000000
 -0.166667  0.166667 -0.300000      1.000000
  0.000000  0.333333 -0.300000      1.000000
  0.166667  0.333333 -0.300000      1.000000
  0.333333  0.333333 -0.300000      1.000000
  0.500000  0.333333 -0.300000      1.000000
 -0.333333  0.333333 -0.300000      1.000000
 -0.166667  0.333333 -0.300000      1.000000
  0.000000  0.500000 -0.300000      1.000000
  0.166667  0.500000 -0.300000      1.000000
  0.333333  0.500000 -0.300000      1.000000
  0.500000  0.500000 -0.300000      1.000000
 -0.333333  0.500000 -0.300000      1.000000
 -0.166667  0.500000 -0.300000      1.000000
  0.000000 -0.333333 -0.300000      1.000000
  0.166667 -0.333333 -0.300000      1.000000
  0.333333 -0.333333 -0.300000      1.000000
  0.500000 -0.333333 -0.300000      1.000000
 -0.333333 -0.333333 -0.300000      1.000000
 -0.166667 -0.333333 -0.300000      1.000000
  0.000000 -0.166667 -0.300000      1.000000
  0.166667 -0.166667 -0.300000      1.000000
  0.333333 -0.166667 -0.300000      1.000000
  0.500000 -0.166667 -0.300000      1.000000
 -0.333333 -0.166667 -0.300000      1.000000
 -0.166667 -0.166667 -0.300000      1.000000
  0.000000  0.000000 -0.200000      1.000000
  0.166667  0.000000 -0.200000      1.000000
  0.333333  0.000000 -0.200000      1.000000
  0.500000  0.000000 -0.200000      1.000000
 -0.333333  0.000000 -0.200000      1.000000
 -0.166667  0.000000 -0.200000      1.000000
  0.000000  0.166667 -0.200000      1.000000
  0.166667  0.166667 -0.200000      1.000000
  0.333333  0.166667 -0.200000      1.000000
  0.500000  0.166667 -0.200000      1.000000
 -0.333333  0.166667 -0.200000      1.000000
 -0.166667  0.166667 -0.200000      1.000000
  0.000000  0.333333 -0.200000      1.000000
  0.166667  0.333333 -0.200000      1.000000
  0.333333  0.333333 -0.200000      1.000000
  0.500000  0.333333 -0.200000      1.000000
 -0.333333  0.333333 -0.200000      1.000000
 -0.166667  0.333333 -0.200000      1.000000
  0.000000  0.500000 -0.200000      1.000000
  0.166667  0.500000 -0.200000      1.000000
  0.333333  0.500000 -0.200000      1.000000
  0.500000  0.500000 -0.200000      1.000000
 -0.333333  0.500000 -0.200000      1.000000
 -0.166667  0.500000 -0.200000      1.000000
  0.000000 -0.333333 -0.200000      1.000000
  0.166667 -0.333333 -0.200000      1.000000
  0.333333 -0.333333 -0.200000      1.000000
  0.500000 -0.333333 -0.200000      1.000000
 -0.333333 -0.333333 -0.200000      1.000000
 -0.166667 -0.333333 -0.200000      1.000000
  0.000000 -0.166667 -0.200000      1.000000
  0.166667 -0.166667 -0.200000      1.000000
  0.333333 -0.166667 -0.200000      1.000000
  0.500000 -0.166667 -0.200000      1.000000
 -0.333333 -0.166667 -0.200000      1.000000
 -0.166667 -0.166667 -0.200000      1.000000
  0.000000  0.000000 -0.100000      1.000000
  0.166667  0.000000 -0.100000      1.000000
  0.333333  0.000000 -0.100000      1.000000
  0.500000  0.000000 -0.100000      1.000000
 -0.333333  0.000000 -0.100000      1.000000
 -0.166667  0.000000 -0.100000      1.000000
  0.000000  0.166667 -0.100000      1.000000
  0.166667  0.166667 -0.100000      1.000000
  0.333333  0.166667 -0.100000      1.000000
  0.500000  0.166667 -0.100000      1.000000
 -0.333333  0.166667 -0.100000      1.000000
 -0.166667  0.166667 -0.100000      1.000000
  0.000000  0.333333 -0.100000      1.000000
  0.166667  0.333333 -0.100000      1.000000
  0.333333  0.333333 -0.100000      1.000000
  0.500000  0.333333 -0.100000      1.000000
 -0.333333  0.333333 -0.100000      1.000000
 -0.166667  0.333333 -0.100000      1.000000
  0.000000  0.500000 -0.100000      1.000000
  0.166667  0.500000 -0.100000      1.000000
  0.333333  0.500000 -0.100000      1.000000
  0.500000  0.500000 -0.100000      1.000000
 -0.333333  0.500000 -0.100000      1.000000
 -0.166667  0.500000 -0.100000      1.000000
  0.000000 -0.333333 -0.100000      1.000000
  0.166667 -0.333333 -0.100000      1.000000
  0.333333 -0.333333 -0.100000      1.000000
  0.500000 -0.333333 -0.100000      1.000000
 -0.333333 -0.333333 -0.100000      1.000000
 -0.166667 -0.333333 -0.100000      1.000000
  0.000000 -0.166667 -0.100000      1.000000
  0.166667 -0.166667 -0.100000      1.000000
  0.333333 -0.166667 -0.100000      1.000000
  0.500000 -0.166667 -0.100000      1.000000
 -0.333333 -0.166667 -0.100000      1.000000
 -0.166667 -0.166667 -0.100000      1.000000
 
 Following cartesian coordinates:
            Coordinates               Weight
  0.000000  0.000000  0.000000      1.000000
  0.166789  0.000000  0.000000      1.000000
  0.333577  0.000000  0.000000      1.000000
  0.500366  0.000000  0.000000      1.000000
 -0.333577  0.000000  0.000000      1.000000
 -0.166789  0.000000  0.000000      1.000000
  0.000000  0.166789  0.000000      1.000000
  0.166789  0.166789  0.000000      1.000000
  0.333577  0.166789  0.000000      1.000000
  0.500366  0.166789  0.000000      1.000000
 -0.333577  0.166789  0.000000      1.000000
 -0.166789  0.166789  0.000000      1.000000
  0.000000  0.333577  0.000000      1.000000
  0.166789  0.333577  0.000000      1.000000
  0.333577  0.333577  0.000000      1.000000
  0.500366  0.333577  0.000000      1.000000
 -0.333577  0.333577  0.000000      1.000000
 -0.166789  0.333577  0.000000      1.000000
  0.000000  0.500366  0.000000      1.000000
  0.166789  0.500366  0.000000      1.000000
  0.333577  0.500366  0.000000      1.000000
  0.500366  0.500366  0.000000      1.000000
 -0.333577  0.500366  0.000000      1.000000
 -0.166789  0.500366  0.000000      1.000000
  0.000000 -0.333577  0.000000      1.000000
  0.166789 -0.333577  0.000000      1.000000
  0.333577 -0.333577  0.000000      1.000000
  0.500366 -0.333577  0.000000      1.000000
 -0.333577 -0.333577  0.000000      1.000000
 -0.166789 -0.333577  0.000000      1.000000
  0.000000 -0.166789  0.000000      1.000000
  0.166789 -0.166789  0.000000      1.000000
  0.333577 -0.166789  0.000000      1.000000
  0.500366 -0.166789  0.000000      1.000000
 -0.333577 -0.166789  0.000000      1.000000
 -0.166789 -0.166789  0.000000      1.000000
  0.000000  0.000000  0.149036      1.000000
  0.166789  0.000000  0.149036      1.000000
  0.333577  0.000000  0.149036      1.000000
  0.500366  0.000000  0.149036      1.000000
 -0.333577  0.000000  0.149036      1.000000
 -0.166789  0.000000  0.149036      1.000000
  0.000000  0.166789  0.149036      1.000000
  0.166789  0.166789  0.149036      1.000000
  0.333577  0.166789  0.149036      1.000000
  0.500366  0.166789  0.149036      1.000000
 -0.333577  0.166789  0.149036      1.000000
 -0.166789  0.166789  0.149036      1.000000
  0.000000  0.333577  0.149036      1.000000
  0.166789  0.333577  0.149036      1.000000
  0.333577  0.333577  0.149036      1.000000
  0.500366  0.333577  0.149036      1.000000
 -0.333577  0.333577  0.149036      1.000000
 -0.166789  0.333577  0.149036      1.000000
  0.000000  0.500366  0.149036      1.000000
  0.166789  0.500366  0.149036      1.000000
  0.333577  0.500366  0.149036      1.000000
  0.500366  0.500366  0.149036      1.000000
 -0.333577  0.500366  0.149036      1.000000
 -0.166789  0.500366  0.149036      1.000000
  0.000000 -0.333577  0.149036      1.000000
  0.166789 -0.333577  0.149036      1.000000
  0.333577 -0.333577  0.149036      1.000000
  0.500366 -0.333577  0.149036      1.000000
 -0.333577 -0.333577  0.149036      1.000000
 -0.166789 -0.333577  0.149036      1.000000
  0.000000 -0.166789  0.149036      1.000000
  0.166789 -0.166789  0.149036      1.000000
  0.333577 -0.166789  0.149036      1.000000
  0.500366 -0.166789  0.149036      1.000000
 -0.333577 -0.166789  0.149036      1.000000
 -0.166789 -0.166789  0.149036      1.000000
  0.000000  0.000000  0.298071      1.000000
  0.166789  0.000000  0.298071      1.000000
  0.333577  0.000000  0.298071      1.000000
  0.500366  0.000000  0.298071      1.000000
 -0.333577  0.000000  0.298071      1.000000
 -0.166789  0.000000  0.298071      1.000000
  0.000000  0.166789  0.298071      1.000000
  0.166789  0.166789  0.298071      1.000000
  0.333577  0.166789  0.298071      1.000000
  0.500366  0.166789  0.298071      1.000000
 -0.333577  0.166789  0.298071      1.000000
 -0.166789  0.166789  0.298071      1.000000
  0.000000  0.333577  0.298071      1.000000
  0.166789  0.333577  0.298071      1.000000
  0.333577  0.333577  0.298071      1.000000
  0.500366  0.333577  0.298071      1.000000
 -0.333577  0.333577  0.298071      1.000000
 -0.166789  0.333577  0.298071      1.000000
  0.000000  0.500366  0.298071      1.000000
  0.166789  0.500366  0.298071      1.000000
  0.333577  0.500366  0.298071      1.000000
  0.500366  0.500366  0.298071      1.000000
 -0.333577  0.500366  0.298071      1.000000
 -0.166789  0.500366  0.298071      1.000000
  0.000000 -0.333577  0.298071      1.000000
  0.166789 -0.333577  0.298071      1.000000
  0.333577 -0.333577  0.298071      1.000000
  0.500366 -0.333577  0.298071      1.000000
 -0.333577 -0.333577  0.298071      1.000000
 -0.166789 -0.333577  0.298071      1.000000
  0.000000 -0.166789  0.298071      1.000000
  0.166789 -0.166789  0.298071      1.000000
  0.333577 -0.166789  0.298071      1.000000
  0.500366 -0.166789  0.298071      1.000000
 -0.333577 -0.166789  0.298071      1.000000
 -0.166789 -0.166789  0.298071      1.000000
  0.000000  0.000000  0.447107      1.000000
  0.166789  0.000000  0.447107      1.000000
  0.333577  0.000000  0.447107      1.000000
  0.500366  0.000000  0.447107      1.000000
 -0.333577  0.000000  0.447107      1.000000
 -0.166789  0.000000  0.447107      1.000000
  0.000000  0.166789  0.447107      1.000000
  0.166789  0.166789  0.447107      1.000000
  0.333577  0.166789  0.447107      1.000000
  0.500366  0.166789  0.447107      1.000000
 -0.333577  0.166789  0.447107      1.000000
 -0.166789  0.166789  0.447107      1.000000
  0.000000  0.333577  0.447107      1.000000
  0.166789  0.333577  0.447107      1.000000
  0.333577  0.333577  0.447107      1.000000
  0.500366  0.333577  0.447107      1.000000
 -0.333577  0.333577  0.447107      1.000000
 -0.166789  0.333577  0.447107      1.000000
  0.000000  0.500366  0.447107      1.000000
  0.166789  0.500366  0.447107      1.000000
  0.333577  0.500366  0.447107      1.000000
  0.500366  0.500366  0.447107      1.000000
 -0.333577  0.500366  0.447107      1.000000
 -0.166789  0.500366  0.447107      1.000000
  0.000000 -0.333577  0.447107      1.000000
  0.166789 -0.333577  0.447107      1.000000
  0.333577 -0.333577  0.447107      1.000000
  0.500366 -0.333577  0.447107      1.000000
 -0.333577 -0.333577  0.447107      1.000000
 -0.166789 -0.333577  0.447107      1.000000
  0.000000 -0.166789  0.447107      1.000000
  0.166789 -0.166789  0.447107      1.000000
  0.333577 -0.166789  0.447107      1.000000
  0.500366 -0.166789  0.447107      1.000000
 -0.333577 -0.166789  0.447107      1.000000
 -0.166789 -0.166789  0.447107      1.000000
  0.000000  0.000000  0.596142      1.000000
  0.166789  0.000000  0.596142      1.000000
  0.333577  0.000000  0.596142      1.000000
  0.500366  0.000000  0.596142      1.000000
 -0.333577  0.000000  0.596142      1.000000
 -0.166789  0.000000  0.596142      1.000000
  0.000000  0.166789  0.596142      1.000000
  0.166789  0.166789  0.596142      1.000000
  0.333577  0.166789  0.596142      1.000000
  0.500366  0.166789  0.596142      1.000000
 -0.333577  0.166789  0.596142      1.000000
 -0.166789  0.166789  0.596142      1.000000
  0.000000  0.333577  0.596142      1.000000
  0.166789  0.333577  0.596142      1.000000
  0.333577  0.333577  0.596142      1.000000
  0.500366  0.333577  0.596142      1.000000
 -0.333577  0.333577  0.596142      1.000000
 -0.166789  0.333577  0.596142      1.000000
  0.000000  0.500366  0.596142      1.000000
  0.166789  0.500366  0.596142      1.000000
  0.333577  0.500366  0.596142      1.000000
  0.500366  0.500366  0.596142      1.000000
 -0.333577  0.500366  0.596142      1.000000
 -0.166789  0.500366  0.596142      1.000000
  0.000000 -0.333577  0.596142      1.000000
  0.166789 -0.333577  0.596142      1.000000
  0.333577 -0.333577  0.596142      1.000000
  0.500366 -0.333577  0.596142      1.000000
 -0.333577 -0.333577  0.596142      1.000000
 -0.166789 -0.333577  0.596142      1.000000
  0.000000 -0.166789  0.596142      1.000000
  0.166789 -0.166789  0.596142      1.000000
  0.333577 -0.166789  0.596142      1.000000
  0.500366 -0.166789  0.596142      1.000000
 -0.333577 -0.166789  0.596142      1.000000
 -0.166789 -0.166789  0.596142      1.000000
  0.000000  0.000000  0.745178      1.000000
  0.166789  0.000000  0.745178      1.000000
  0.333577  0.000000  0.745178      1.000000
  0.500366  0.000000  0.745178      1.000000
 -0.333577  0.000000  0.745178      1.000000
 -0.166789  0.000000  0.745178      1.000000
  0.000000  0.166789  0.745178      1.000000
  0.166789  0.166789  0.745178      1.000000
  0.333577  0.166789  0.745178      1.000000
  0.500366  0.166789  0.745178      1.000000
 -0.333577  0.166789  0.745178      1.000000
 -0.166789  0.166789  0.745178      1.000000
  0.000000  0.333577  0.745178      1.000000
  0.166789  0.333577  0.745178      1.000000
  0.333577  0.333577  0.745178      1.000000
  0.500366  0.333577  0.745178      1.000000
 -0.333577  0.333577  0.745178      1.000000
 -0.166789  0.333577  0.745178      1.000000
  0.000000  0.500366  0.745178      1.000000
  0.166789  0.500366  0.745178      1.000000
  0.333577  0.500366  0.745178      1.000000
  0.500366  0.500366  0.745178      1.000000
 -0.333577  0.500366  0.745178      1.000000
 -0.166789  0.500366  0.745178      1.000000
  0.000000 -0.333577  0.745178      1.000000
  0.166789 -0.333577  0.745178      1.000000
  0.333577 -0.333577  0.745178      1.000000
  0.500366 -0.333577  0.745178      1.000000
 -0.333577 -0.333577  0.745178      1.000000
 -0.166789 -0.333577  0.745178      1.000000
  0.000000 -0.166789  0.745178      1.000000
  0.166789 -0.166789  0.745178      1.000000
  0.333577 -0.166789  0.745178      1.000000
  0.500366 -0.166789  0.745178      1.000000
 -0.333577 -0.166789  0.745178      1.000000
 -0.166789 -0.166789  0.745178      1.000000
  0.000000  0.000000 -0.596142      1.000000
  0.166789  0.000000 -0.596142      1.000000
  0.333577  0.000000 -0.596142      1.000000
  0.500366  0.000000 -0.596142      1.000000
 -0.333577  0.000000 -0.596142      1.000000
 -0.166789  0.000000 -0.596142      1.000000
  0.000000  0.166789 -0.596142      1.000000
[...]
     13     -12.2915     -12.4843     -22.8113     -22.5581     -30.7122       0.7613       2.0000
     14     -12.0594     -12.2869     -22.7518     -22.4539     -30.4872       0.7635       2.0000
     15      -3.2525      -3.4330     -16.9041     -16.6607     -21.4203       0.7417       2.0000
     16      -2.8744      -3.0633     -17.1321     -16.8787     -21.5887       0.7453       2.0000
     17      -0.2631      -0.5329     -17.8932     -17.5396     -22.2598       0.7630       2.0000
     18      -0.2675      -0.5505     -17.8098     -17.4383     -22.2147       0.7616       2.0000
     19       0.1800       0.0408     -18.9824     -18.8021     -23.1329       0.7719       2.0000
     20       2.1584       2.0698     -19.9765     -19.8640     -23.9284       0.7869       2.0000
     21       2.1961       2.1053     -20.0729     -19.9576     -24.0040       0.7877       2.0000
     22       3.4908       3.4013     -20.3635     -20.2489     -24.9110       0.7807       2.0000
     23       3.7881       3.7928     -21.0802     -21.0862     -24.8931       0.7945       2.0000
     24       3.5348       3.4468     -20.4835     -20.3709     -25.0730       0.7812       2.0000
     25       3.5397       3.4376     -20.4436     -20.3123     -25.2219       0.7777       2.0000
     26       3.6556       3.5756     -20.6203     -20.5174     -25.4030       0.7772       2.0000
     27      11.8571      12.9214     -13.5863     -14.8647      -9.8798       0.8326       0.0000
     28      12.1171      13.1349     -13.0140     -14.2325      -9.1942       0.8353       0.0000
     29      15.0154      15.7844     -11.3673     -12.2922      -7.2472       0.8314       0.0000
     30      16.0354      16.6706     -10.0358     -10.7927      -5.9278       0.8392       0.0000
     31      17.4739      18.3582     -12.7834     -13.8819      -8.1758       0.8050       0.0000
     32      17.9668      18.8479     -12.5053     -13.6050      -7.8300       0.8013       0.0000
     33      18.2323      19.1291     -11.9713     -13.0745      -7.1621       0.8129       0.0000
     34      18.5909      19.4286     -12.2644     -13.3033      -7.4569       0.8063       0.0000
     35      19.3363      19.9891     -10.8180     -11.6150      -6.2954       0.8191       0.0000
     36      19.8503      20.4007      -9.0296      -9.6850      -4.6067       0.8398       0.0000
     37      20.5451      21.0659      -8.9522      -9.5751      -4.4274       0.8360       0.0000
     38      21.0285      21.5884      -8.9030      -9.5735      -4.2273       0.8351       0.0000
     39      21.0630      21.6131      -9.2174      -9.8781      -4.7211       0.8326       0.0000
     40      24.6451      25.1723      -8.9501      -9.5891      -3.9376       0.8250       0.0000
     41      24.7260      25.2705      -8.9502      -9.6123      -3.9143       0.8225       0.0000
     42      25.9459      26.4910     -10.3892     -11.0668      -4.7423       0.8044       0.0000
     43      26.0881      26.5823      -9.1710      -9.7726      -3.8679       0.8216       0.0000
     44      28.0013      28.3935      -8.3029      -8.7720      -3.0913       0.8363       0.0000
     45      29.2521      30.1862      -9.5155     -10.6365      -4.1155       0.8332       0.0000
     46      30.1481      31.1702      -9.7436     -10.9641      -4.2749       0.8374       0.0000
     47      31.2223      31.7923     -10.2033     -10.8940      -4.5076       0.8253       0.0000
     48      31.5499      32.2388     -10.3090     -11.1543      -4.5319       0.8149       0.0000
     49      31.7853      32.1776      -9.6934     -10.1663      -3.7660       0.8297       0.0000
     50      32.8296      33.4566      -8.9701      -9.6989      -3.4620       0.8602       0.0000
     51      33.7441      34.5610      -9.2388     -10.1956      -3.6881       0.8538       0.0000
     52      33.9310      34.6351      -9.4097     -10.2406      -3.8091       0.8475       0.0000
     53      34.4290      35.1324      -9.4496     -10.2768      -3.6513       0.8504       0.0000
     54      34.5966      35.3358      -9.1393     -10.0331      -3.2586       0.8270       0.0000
     55      35.2668      35.7204      -9.1284      -9.6658      -3.3643       0.8439       0.0000
     56      36.9499      37.7946      -8.8119      -9.8048      -3.2551       0.8508       0.0000
     57      37.0505      37.9832      -9.2643     -10.3396      -3.5844       0.8674       0.0000
     58      37.4706      38.4900      -8.9792     -10.1770      -3.2851       0.8511       0.0000
     59      39.2428      40.2965      -8.9800     -10.1924      -3.2890       0.8691       0.0000
     60      39.3518      40.6990      -9.5572     -11.1069      -3.8660       0.8693       0.0000
     61      40.0935      41.3265      -9.5704     -11.0077      -3.6245       0.8579       0.0000
     62      40.2426      41.5807      -9.9377     -11.5005      -4.0463       0.8562       0.0000
     63      40.5503      41.9431      -9.7354     -11.3962      -3.6600       0.8387       0.0000
     64      40.9805      42.3280      -9.9850     -11.5865      -3.9686       0.8414       0.0000

 k-point  59 :       0.5000    0.3333    0.5000
  band No. DFT-energies  QP-energies   sigma(DFT)  V_xc(DFT)    V^pw_x(r,r')   Z            occupation

      1     -17.6405     -18.4257     -21.4574     -20.4463     -28.3654       0.7765       2.0000
      2     -17.6405     -18.4257     -21.4574     -20.4463     -28.3654       0.7765       2.0000
      3     -16.9648     -17.9255     -21.4822     -20.2861     -27.8896       0.8032       2.0000
      4     -16.9648     -17.9255     -21.4822     -20.2861     -27.8896       0.8032       2.0000
      5     -16.5092     -17.6630     -21.3339     -19.9235     -27.1081       0.8181       2.0000
      6     -16.5092     -17.6630     -21.3339     -19.9235     -27.1081       0.8181       2.0000
      7     -16.4641     -17.6385     -21.4160     -19.9810     -27.1623       0.8184       2.0000
      8     -16.4641     -17.6385     -21.4160     -19.9810     -27.1623       0.8184       2.0000
      9     -16.4003     -17.5517     -21.4420     -20.0351     -27.1969       0.8185       2.0000
     10     -16.4003     -17.5517     -21.4420     -20.0351     -27.1969       0.8185       2.0000
     11     -13.8424     -13.9367     -22.2623     -22.1340     -30.6338       0.7353       2.0000
     12     -13.8424     -13.9367     -22.2623     -22.1340     -30.6338       0.7353       2.0000
     13     -12.2132     -12.4213     -22.7734     -22.5000     -30.6051       0.7610       2.0000
     14     -12.2132     -12.4213     -22.7734     -22.5000     -30.6051       0.7610       2.0000
     15      -3.2396      -3.4195     -16.9339     -16.6909     -21.4603       0.7406       2.0000
     16      -3.2396      -3.4195     -16.9339     -16.6909     -21.4603       0.7406       2.0000
     17      -0.3667      -0.6495     -17.7757     -17.4045     -22.1925       0.7617       2.0000
     18      -0.3667      -0.6495     -17.7757     -17.4045     -22.1925       0.7617       2.0000
     19       1.2140       1.0928     -19.4883     -19.3331     -23.5094       0.7811       2.0000
     20       1.2140       1.0928     -19.4883     -19.3331     -23.5094       0.7811       2.0000
     21       3.1598       3.1180     -20.6345     -20.5816     -24.5553       0.7907       2.0000
     22       3.1598       3.1180     -20.6345     -20.5816     -24.5553       0.7907       2.0000
     23       3.6195       3.5450     -20.5773     -20.4819     -25.1224       0.7815       2.0000
     24       3.6195       3.5450     -20.5773     -20.4819     -25.1224       0.7815       2.0000
     25       3.6893       3.6143     -20.6572     -20.5610     -25.3907       0.7788       2.0000
     26       3.6893       3.6143     -20.6572     -20.5610     -25.3907       0.7788       2.0000
     27      11.7049      12.7299     -13.1483     -14.3729      -9.4139       0.8370       0.0000
     28      11.7049      12.7299     -13.1483     -14.3729      -9.4139       0.8370       0.0000
     29      15.4699      16.1310     -10.3706     -11.1600      -6.2756       0.8375       0.0000
     30      15.4699      16.1310     -10.3706     -11.1600      -6.2756       0.8375       0.0000
     31      17.8354      18.7009     -12.4629     -13.5402      -7.8057       0.8034       0.0000
     32      17.8354      18.7009     -12.4629     -13.5402      -7.8057       0.8034       0.0000
     33      18.3176      19.2187     -12.7716     -13.8945      -7.9173       0.8026       0.0000
     34      18.3176      19.2187     -12.7716     -13.8945      -7.9173       0.8026       0.0000
     35      19.6291      20.2516      -9.8429     -10.5909      -5.3741       0.8323       0.0000
     36      19.6291      20.2516      -9.8429     -10.5909      -5.3741       0.8323       0.0000
     37      20.9232      21.4142      -8.7618      -9.3491      -4.2279       0.8360       0.0000
     38      20.9232      21.4142      -8.7618      -9.3491      -4.2279       0.8360       0.0000
     39      22.8137      23.3824      -8.9928      -9.6772      -4.1706       0.8310       0.0000
     40      22.8137      23.3824      -8.9928      -9.6772      -4.1706       0.8310       0.0000
     41      25.5285      26.1353     -10.1912     -10.9391      -4.7265       0.8113       0.0000
     42      25.5285      26.1353     -10.1912     -10.9391      -4.7265       0.8113       0.0000
     43      26.3396      26.6940      -8.2993      -8.7301      -3.1773       0.8226       0.0000
     44      26.3396      26.6940      -8.2993      -8.7301      -3.1773       0.8226       0.0000
     45      29.6473      30.5863      -9.6246     -10.7520      -4.1672       0.8329       0.0000
     46      29.6473      30.5863      -9.6246     -10.7520      -4.1672       0.8329       0.0000
     47      31.5502      32.1929     -10.3492     -11.1343      -4.5607       0.8186       0.0000
     48      31.5502      32.1929     -10.3492     -11.1343      -4.5607       0.8186       0.0000
     49      32.5983      33.1712      -9.3361     -10.0235      -3.6223       0.8336       0.0000
     50      32.5983      33.1712      -9.3361     -10.0235      -3.6223       0.8336       0.0000
     51      33.4007      34.1363      -9.3958     -10.2492      -3.8197       0.8620       0.0000
     52      33.4007      34.1363      -9.3958     -10.2492      -3.8197       0.8620       0.0000
     53      35.1384      35.8022      -9.6161     -10.3924      -3.7181       0.8551       0.0000
     54      35.1384      35.8022      -9.6161     -10.3924      -3.7181       0.8551       0.0000
     55      35.8931      36.7352      -9.0496     -10.0484      -3.3563       0.8431       0.0000
     56      35.8931      36.7352      -9.0496     -10.0484      -3.3563       0.8431       0.0000
     57      37.8276      38.4448      -8.6635      -9.3795      -2.8782       0.8620       0.0000
     58      37.8276      38.4448      -8.6635      -9.3795      -2.8782       0.8620       0.0000
     59      38.9589      40.3712      -9.6280     -11.2670      -3.9387       0.8617       0.0000
     60      38.9589      40.3712      -9.6280     -11.2670      -3.9387       0.8617       0.0000
     61      39.8948      41.2918      -9.5520     -11.1768      -3.7694       0.8599       0.0000
     62      39.8948      41.2918      -9.5520     -11.1768      -3.7694       0.8599       0.0000
     63      40.8784      42.1342      -9.5998     -11.0897      -3.6365       0.8429       0.0000
     64      40.8784      42.1342      -9.5998     -11.0897      -3.6365       0.8429       0.0000

 k-point  60 :       0.5000    0.5000    0.5000
  band No. DFT-energies  QP-energies   sigma(DFT)  V_xc(DFT)    V^pw_x(r,r')   Z            occupation

      1     -17.5768     -18.3800     -21.4620     -20.4306     -28.3168       0.7787       2.0000
      2     -17.5768     -18.3800     -21.4620     -20.4306     -28.3168       0.7787       2.0000
      3     -17.0687     -17.9817     -21.4810     -20.3355     -28.0173       0.7970       2.0000
      4     -17.0687     -17.9817     -21.4810     -20.3355     -28.0173       0.7970       2.0000
      5     -16.5062     -17.6604     -21.3342     -19.9235     -27.1064       0.8182       2.0000
      6     -16.5062     -17.6604     -21.3342     -19.9235     -27.1064       0.8182       2.0000
      7     -16.4651     -17.6404     -21.4186     -19.9819     -27.1642       0.8180       2.0000
      8     -16.4651     -17.6404     -21.4186     -19.9819     -27.1642       0.8180       2.0000
      9     -16.4029     -17.5546     -21.4398     -20.0324     -27.1935       0.8183       2.0000
     10     -16.4029     -17.5546     -21.4398     -20.0324     -27.1935       0.8183       2.0000
     11     -13.6982     -13.8240     -22.2714     -22.1013     -30.5130       0.7394       2.0000
     12     -13.6982     -13.8240     -22.2714     -22.1013     -30.5130       0.7394       2.0000
     13     -12.3121     -12.5068     -22.7839     -22.5280     -30.6816       0.7610       2.0000
     14     -12.3121     -12.5068     -22.7839     -22.5280     -30.6816       0.7610       2.0000
     15      -3.4298      -3.6044     -16.8356     -16.5993     -21.3993       0.7388       2.0000
     16      -3.4298      -3.6044     -16.8356     -16.5993     -21.3993       0.7388       2.0000
     17      -0.4457      -0.7369     -17.6832     -17.3000     -22.1372       0.7601       2.0000
     18      -0.4457      -0.7369     -17.6832     -17.3000     -22.1372       0.7601       2.0000
     19       2.2249       2.1403     -20.1256     -20.0182     -24.0499       0.7875       2.0000
     20       2.2249       2.1403     -20.1256     -20.0182     -24.0499       0.7875       2.0000
     21       2.3872       2.3205     -20.1368     -20.0523     -24.0279       0.7892       2.0000
     22       2.3872       2.3205     -20.1368     -20.0523     -24.0279       0.7892       2.0000
     23       3.7019       3.6398     -20.6823     -20.6028     -25.2235       0.7808       2.0000
     24       3.7019       3.6398     -20.6823     -20.6028     -25.2235       0.7808       2.0000
     25       3.7533       3.6823     -20.7516     -20.6604     -25.5567       0.7782       2.0000
     26       3.7533       3.6823     -20.7516     -20.6604     -25.5567       0.7782       2.0000
     27      11.3963      12.4106     -13.0513     -14.2612      -9.3568       0.8383       0.0000
     28      11.3963      12.4106     -13.0513     -14.2612      -9.3568       0.8383       0.0000
     29      15.4829      16.0591      -9.5929     -10.2751      -5.5511       0.8446       0.0000
     30      15.4829      16.0591      -9.5929     -10.2751      -5.5511       0.8446       0.0000
     31      17.9429      18.8173     -12.3209     -13.4089      -7.6483       0.8037       0.0000
     32      17.9429      18.8173     -12.3209     -13.4089      -7.6483       0.8037       0.0000
     33      18.1263      19.0650     -13.6936     -14.8764      -8.7749       0.7937       0.0000
     34      18.1263      19.0650     -13.6936     -14.8764      -8.7749       0.7937       0.0000
     35      19.7694      20.4014      -9.6485     -10.4056      -5.1924       0.8347       0.0000
     36      19.7694      20.4014      -9.6485     -10.4056      -5.1924       0.8347       0.0000
     37      21.8816      22.2952      -8.2126      -8.7047      -3.7341       0.8405       0.0000
     38      21.8816      22.2952      -8.2126      -8.7047      -3.7341       0.8405       0.0000
     39      22.6844      23.2992      -9.5121     -10.2578      -4.4946       0.8243       0.0000
     40      22.6844      23.2992      -9.5121     -10.2578      -4.4946       0.8243       0.0000
     41      24.6571      25.2771     -10.1685     -10.9256      -4.8378       0.8188       0.0000
     42      24.6571      25.2771     -10.1685     -10.9256      -4.8378       0.8188       0.0000
     43      26.0165      26.3693      -8.4469      -8.8786      -3.3106       0.8171       0.0000
     44      26.0165      26.3693      -8.4469      -8.8786      -3.3106       0.8171       0.0000
     45      29.3853      30.3099      -9.5649     -10.6779      -4.1342       0.8308       0.0000
     46      29.3853      30.3099      -9.5649     -10.6779      -4.1342       0.8308       0.0000
     47      31.8857      32.5582     -10.5740     -11.4050      -4.6697       0.8093       0.0000
     48      31.8857      32.5582     -10.5740     -11.4050      -4.6697       0.8093       0.0000
     49      33.3894      34.1590      -9.2936     -10.1750      -3.8065       0.8731       0.0000
     50      33.3894      34.1590      -9.2936     -10.1750      -3.8065       0.8731       0.0000
     51      33.3842      34.0514      -9.0844      -9.8779      -3.5954       0.8409       0.0000
     52      33.3842      34.0514      -9.0844      -9.8779      -3.5954       0.8409       0.0000
     53      34.9099      35.5263      -9.7552     -10.4695      -3.8120       0.8629       0.0000
     54      34.9099      35.5263      -9.7552     -10.4695      -3.8120       0.8629       0.0000
     55      35.1169      35.8865      -9.4309     -10.3645      -3.3804       0.8244       0.0000
     56      35.1169      35.8865      -9.4309     -10.3645      -3.3804       0.8244       0.0000
     57      39.2125      40.6993      -9.7339     -11.4522      -4.0603       0.8653       0.0000
     58      39.2125      40.6993      -9.7339     -11.4522      -4.0603       0.8653       0.0000
     59      39.0102      39.6071      -9.1116      -9.8043      -3.1408       0.8617       0.0000
     60      39.0102      39.6071      -9.1116      -9.8043      -3.1408       0.8617       0.0000
     61      39.8615      41.4222      -9.3427     -11.1608      -3.6850       0.8584       0.0000
     62      39.8615      41.4222      -9.3427     -11.1608      -3.6850       0.8584       0.0000
     63      41.2039      42.3516      -8.8295     -10.1780      -3.3219       0.8511       0.0000
     64      41.2039      42.3516      -8.8295     -10.1780      -3.3219       0.8511       0.0000


--------------------------------------------------------------------------------------------------------


  QP_SHIFT:  cpu time    2.46: real time    2.47
 writing wavefunctions
    4ORBIT:  cpu time    0.00: real time    0.00



 total charge     

# of ion     s       p       d       tot
----------------------------------------
  1        0.851   1.075  10.392  12.317
  2        0.836   1.098  10.384  12.318
  3        1.584   3.550   0.000   5.134
  4        1.584   3.550   0.000   5.134
  5        1.587   3.563   0.000   5.150
  6        1.587   3.563   0.000   5.150
------------------------------------------------
tot        8.029  16.399  20.776  45.204


 total amount of memory used by VASP on root node 119158. kBytes
========================================================================

   base      :    30000. kBytes
   nonl-proj :    23353. kBytes
   fftplans  :     3765. kBytes
   grid      :     5169. kBytes
   one-center:       93. kBytes
   HF        :      259. kBytes
   nonlr-proj:     2145. kBytes
   wavefun   :    54374. kBytes
   2eintegral:        0. kBytes
   response  :        0. kBytes

  
  
 General timing and accounting informations for this job:
 ========================================================
  
                  Total CPU time used (sec):    28529.260
                            User time (sec):    28236.297
                          System time (sec):      292.962
                         Elapsed time (sec):    28543.425
  
                   Maximum memory used (kb):           0.
                   Average memory used (kb):           0.
  
                          Minor page faults:     74458753
                          Major page faults:            0
                 Voluntary context switches:          895
