       N       E                     dE             d eps       ncg     rms          rms(c)
DAV:   1     0.484421206961E+04    0.47641E+04   -0.14119E+05  4232   0.133E+03
DAV:   2     0.975697459593E+03   -0.38685E+04   -0.36655E+04  4224   0.448E+02
DAV:   3     0.432661685892E+03   -0.54304E+03   -0.50776E+03  4536   0.172E+02
DAV:   4     0.398818322382E+03   -0.33843E+02   -0.31356E+02  5208   0.420E+01
DAV:   5     0.397794364345E+03   -0.10240E+01   -0.10084E+01  5624   0.668E+00    0.640E+01
RMM:   6     0.429217843167E+03    0.31423E+02   -0.72891E+02  4305   0.579E+01    0.368E+01
RMM:   7     0.457939789071E+03    0.28722E+02   -0.44524E+01  4280   0.164E+01    0.131E+01
RMM:   8     0.453993075341E+03   -0.39467E+01   -0.24619E+00  4693   0.395E+00    0.103E+01
RMM:   9     0.448571298421E+03   -0.54218E+01   -0.69952E+00  4800   0.725E+00    0.442E+00
RMM:  10     0.448981126120E+03    0.40983E+00   -0.13153E+00  4495   0.232E+00    0.361E+00
RMM:  11     0.449055037783E+03    0.73912E-01   -0.39240E-01  4748   0.114E+00    0.154E+00
RMM:  12     0.449070404471E+03    0.15367E-01   -0.78641E-02  5031   0.526E-01    0.815E-01
RMM:  13     0.449067551177E+03   -0.28533E-02   -0.13603E-02  4941   0.257E-01    0.586E-01
RMM:  14     0.449067625509E+03    0.74331E-04   -0.65515E-03  4922   0.161E-01    0.184E-01
RMM:  15     0.449065232122E+03   -0.23934E-02   -0.19589E-03  4949   0.101E-01    0.227E-01
RMM:  16     0.449064690786E+03   -0.54134E-03   -0.27810E-04  4550   0.317E-02    0.224E-01
RMM:  17     0.449065538796E+03    0.84801E-03   -0.26337E-04  4421   0.327E-02    0.183E-01
RMM:  18     0.449064658458E+03   -0.88034E-03   -0.71688E-04  4644   0.587E-02    0.200E-01
RMM:  19     0.449063886138E+03   -0.77232E-03   -0.66844E-04  4653   0.596E-02    0.174E-01
RMM:  20     0.449063323005E+03   -0.56313E-03   -0.44381E-04  4550   0.457E-02    0.181E-01
RMM:  21     0.449063788879E+03    0.46587E-03   -0.21485E-04  3920   0.321E-02    0.185E-01
RMM:  22     0.449063509028E+03   -0.27985E-03   -0.24484E-04  4089   0.345E-02    0.162E-01
RMM:  23     0.449063431272E+03   -0.77756E-04   -0.23543E-05  3138   0.110E-02    0.158E-01
RMM:  24     0.449063639579E+03    0.20831E-03   -0.10192E-04  3931   0.218E-02    0.165E-01
RMM:  25     0.449063465733E+03   -0.17385E-03   -0.30568E-04  4292   0.378E-02    0.130E-01
RMM:  26     0.449062979253E+03   -0.48648E-03   -0.64593E-04  4510   0.584E-02    0.863E-02
RMM:  27     0.449062559883E+03   -0.41937E-03   -0.45021E-04  4480   0.497E-02    0.757E-02
RMM:  28     0.449062393334E+03   -0.16655E-03   -0.11356E-04  4220   0.238E-02    0.802E-02
RMM:  29     0.449062627610E+03    0.23428E-03   -0.83694E-05  3767   0.230E-02    0.773E-02
RMM:  30     0.449062742356E+03    0.11475E-03   -0.11579E-04  3925   0.229E-02    0.703E-02
RMM:  31     0.449062636744E+03   -0.10561E-03   -0.72078E-05  3804   0.192E-02    0.663E-02
RMM:  32     0.449062211676E+03   -0.42507E-03   -0.58722E-04  4310   0.588E-02    0.467E-02
RMM:  33     0.449062045750E+03   -0.16593E-03   -0.16020E-04  4149   0.304E-02    0.413E-02
RMM:  34     0.449061978018E+03   -0.67732E-04   -0.44113E-05  3457   0.139E-02    0.416E-02
RMM:  35     0.449062215719E+03    0.23770E-03   -0.15930E-04  3868   0.342E-02    0.417E-02
RMM:  36     0.449062125361E+03   -0.90358E-04   -0.79342E-05  3749   0.209E-02    0.317E-02
RMM:  37     0.449062095957E+03   -0.29404E-04   -0.41607E-05  3360   0.144E-02    0.291E-02
RMM:  38     0.449061972534E+03   -0.12342E-03   -0.66227E-05  3634   0.198E-02    0.279E-02
RMM:  39     0.449062015452E+03    0.42918E-04   -0.61687E-06  2471   0.756E-03    0.275E-02
RMM:  40     0.449062027677E+03    0.12225E-04   -0.68219E-06  2330   0.595E-03    0.268E-02
RMM:  41     0.449062055332E+03    0.27656E-04   -0.53706E-05  3401   0.163E-02    0.243E-02
RMM:  42     0.449061947840E+03   -0.10749E-03   -0.12186E-04  3894   0.266E-02    0.209E-02
RMM:  43     0.449061773489E+03   -0.17435E-03   -0.20244E-04  3987   0.369E-02    0.195E-02
RMM:  44     0.449061662106E+03   -0.11138E-03   -0.96633E-05  3960   0.249E-02    0.183E-02
RMM:  45     0.449061658148E+03   -0.39576E-05   -0.76483E-06  2641   0.669E-03
   1 F= 0.44906166E+03 E0= 0.44908748E+03  d E =0.449062E+03  mag=     1.0000
       N       E                     dE             d eps       ncg     rms          rms(c)
DAV:   1     0.449453879603E+03    0.39222E+00   -0.29165E+02  4224   0.401E+01    0.294E+00
RMM:   2     0.447928667459E+03   -0.15252E+01   -0.17166E+01  4711   0.910E+00    0.157E+00
RMM:   3     0.448151790416E+03    0.22312E+00   -0.43180E-01  4905   0.221E+00    0.112E+00
RMM:   4     0.448183673274E+03    0.31883E-01   -0.12367E-01  4586   0.775E-01    0.399E-01
RMM:   5     0.448183926807E+03    0.25353E-03   -0.28282E-02  4815   0.317E-01    0.204E-01
RMM:   6     0.448182885878E+03   -0.10409E-02   -0.22255E-03  4897   0.127E-01    0.195E-01
RMM:   7     0.448181931453E+03   -0.95442E-03   -0.83532E-04  4969   0.598E-02    0.198E-01
RMM:   8     0.448182106692E+03    0.17524E-03   -0.63748E-05  4105   0.184E-02    0.199E-01
RMM:   9     0.448181190053E+03   -0.91664E-03   -0.36273E-04  4554   0.423E-02    0.184E-01
RMM:  10     0.448178476989E+03   -0.27131E-02   -0.20068E-03  4496   0.109E-01    0.156E-01
RMM:  11     0.448174527770E+03   -0.39492E-02   -0.41583E-03  4513   0.166E-01    0.147E-01
RMM:  12     0.448171984861E+03   -0.25429E-02   -0.20855E-03  4714   0.115E-01    0.133E-01
RMM:  13     0.448171857179E+03   -0.12768E-03   -0.29075E-04  4790   0.387E-02    0.138E-01
RMM:  14     0.448172805469E+03    0.94829E-03   -0.15163E-04  3906   0.312E-02    0.127E-01
RMM:  15     0.448173462899E+03    0.65743E-03   -0.81594E-04  4559   0.605E-02    0.106E-01
RMM:  16     0.448173958054E+03    0.49515E-03   -0.40220E-04  4429   0.436E-02    0.995E-02
RMM:  17     0.448173599401E+03   -0.35865E-03   -0.32051E-04  4329   0.383E-02    0.934E-02
RMM:  18     0.448172576900E+03   -0.10225E-02   -0.48582E-04  4373   0.554E-02    0.965E-02
RMM:  19     0.448172650166E+03    0.73266E-04   -0.21709E-05  3116   0.119E-02    0.959E-02
RMM:  20     0.448172625993E+03   -0.24173E-04   -0.40839E-06  2636   0.461E-03    0.961E-02
RMM:  21     0.448171636049E+03   -0.98994E-03   -0.47687E-04  4339   0.536E-02    0.111E-01
RMM:  22     0.448171403814E+03   -0.23223E-03   -0.20821E-04  4215   0.348E-02    0.125E-01
RMM:  23     0.448170939381E+03   -0.46443E-03   -0.10943E-04  4072   0.268E-02    0.135E-01
RMM:  24     0.448170914099E+03   -0.25282E-04   -0.72267E-06  2722   0.713E-03    0.136E-01
RMM:  25     0.448171322605E+03    0.40851E-03   -0.60616E-05  3608   0.218E-02    0.137E-01
RMM:  26     0.448171441234E+03    0.11863E-03   -0.12179E-04  3929   0.237E-02    0.124E-01
RMM:  27     0.448170995633E+03   -0.44560E-03   -0.15280E-04  3990   0.282E-02    0.120E-01
RMM:  28     0.448171043254E+03    0.47621E-04   -0.50180E-06  2524   0.618E-03    0.119E-01
RMM:  29     0.448171297468E+03    0.25421E-03   -0.12332E-05  2603   0.107E-02    0.120E-01
RMM:  30     0.448171234466E+03   -0.63003E-04   -0.18588E-06  2237   0.472E-03    0.119E-01
RMM:  31     0.448171144470E+03   -0.89996E-04   -0.15851E-06  2186   0.348E-03    0.119E-01
RMM:  32     0.448174821810E+03    0.36773E-02   -0.26318E-03  4341   0.141E-01    0.107E-01
RMM:  33     0.448175861475E+03    0.10397E-02   -0.13293E-03  4481   0.934E-02    0.906E-02
RMM:  34     0.448175067484E+03   -0.79399E-03   -0.22000E-04  4128   0.393E-02    0.810E-02
RMM:  35     0.448173890236E+03   -0.11772E-02   -0.48864E-04  4367   0.609E-02    0.826E-02
RMM:  36     0.448172504929E+03   -0.13853E-02   -0.58590E-04  4386   0.652E-02    0.887E-02
RMM:  37     0.448174417146E+03    0.19122E-02   -0.66926E-04  4327   0.745E-02    0.836E-02
RMM:  38     0.448175687785E+03    0.12706E-02   -0.57265E-04  4302   0.674E-02    0.784E-02
RMM:  39     0.448176914817E+03    0.12270E-02   -0.92829E-04  4433   0.798E-02    0.774E-02
RMM:  40     0.448177343984E+03    0.42917E-03   -0.39756E-04  4443   0.517E-02    0.700E-02
RMM:  41     0.448177507449E+03    0.16347E-03   -0.36944E-04  4340   0.470E-02    0.706E-02
RMM:  42     0.448177276404E+03   -0.23105E-03   -0.16882E-04  4106   0.310E-02    0.685E-02
RMM:  43     0.448178026306E+03    0.74990E-03   -0.23365E-04  4052   0.424E-02    0.685E-02
RMM:  44     0.448178379605E+03    0.35330E-03   -0.11877E-04  3959   0.298E-02    0.667E-02
RMM:  45     0.448178815869E+03    0.43626E-03   -0.16647E-04  3982   0.335E-02    0.641E-02
RMM:  46     0.448179855703E+03    0.10398E-02   -0.77301E-04  4291   0.762E-02    0.606E-02
RMM:  47     0.448180472353E+03    0.61665E-03   -0.68549E-04  4365   0.712E-02    0.592E-02
RMM:  48     0.448180681287E+03    0.20893E-03   -0.64749E-04  4406   0.679E-02    0.512E-02
RMM:  49     0.448180685754E+03    0.44663E-05   -0.11564E-03  4511   0.851E-02    0.539E-02
RMM:  50     0.448180543861E+03   -0.14189E-03   -0.26186E-04  4381   0.393E-02    0.510E-02
RMM:  51     0.448180444885E+03   -0.98976E-04   -0.94561E-05  4173   0.220E-02    0.493E-02
RMM:  52     0.448180547188E+03    0.10230E-03   -0.23359E-05  3023   0.137E-02    0.494E-02
RMM:  53     0.448180484271E+03   -0.62917E-04   -0.14667E-04  3934   0.318E-02    0.539E-02
RMM:  54     0.448180359164E+03   -0.12511E-03   -0.79673E-05  3906   0.227E-02    0.559E-02
RMM:  55     0.448180367457E+03    0.82926E-05   -0.51850E-06  2465   0.585E-03
   2 F= 0.44818037E+03 E0= 0.44819871E+03  d E =-.881291E+00  mag=     1.0000
       N       E                     dE             d eps       ncg     rms          rms(c)
DAV:   1     0.448180599139E+03    0.23997E-03   -0.39098E+00  4352   0.469E+00    0.306E-01
RMM:   2     0.448159884681E+03   -0.20714E-01   -0.22448E-01  4734   0.105E+00    0.207E-01
RMM:   3     0.448163571997E+03    0.36873E-02   -0.61322E-03  4894   0.259E-01    0.147E-01
RMM:   4     0.448163646986E+03    0.74988E-04   -0.23113E-03  4750   0.104E-01    0.883E-02
RMM:   5     0.448163402380E+03   -0.24461E-03   -0.44635E-04  4834   0.488E-02    0.622E-02
RMM:   6     0.448162926151E+03   -0.47623E-03   -0.32459E-04  4446   0.443E-02    0.708E-02
RMM:   7     0.448162892201E+03   -0.33950E-04   -0.27813E-05  3376   0.132E-02    0.704E-02
RMM:   8     0.448163228930E+03    0.33673E-03   -0.10123E-04  3917   0.289E-02    0.615E-02
RMM:   9     0.448163826840E+03    0.59791E-03   -0.58066E-04  4369   0.573E-02    0.515E-02
RMM:  10     0.448164259154E+03    0.43231E-03   -0.65271E-04  4516   0.605E-02    0.463E-02
RMM:  11     0.448164387483E+03    0.12833E-03   -0.19608E-04  4301   0.319E-02    0.414E-02
RMM:  12     0.448164510341E+03    0.12286E-03   -0.16585E-04  4169   0.298E-02    0.383E-02
RMM:  13     0.448164537427E+03    0.27086E-04   -0.78613E-05  4066   0.198E-02    0.366E-02
RMM:  14     0.448164492553E+03   -0.44873E-04   -0.32011E-05  3280   0.130E-02    0.358E-02
RMM:  15     0.448164365245E+03   -0.12731E-03   -0.51346E-05  3450   0.170E-02    0.344E-02
RMM:  16     0.448164242747E+03   -0.12250E-03   -0.39290E-05  3193   0.160E-02    0.344E-02
RMM:  17     0.448164268268E+03    0.25521E-04   -0.33888E-06  2327   0.601E-03    0.342E-02
RMM:  18     0.448164260299E+03   -0.79687E-05   -0.78916E-07  2031   0.255E-03
   3 F= 0.44816426E+03 E0= 0.44818264E+03  d E =-.897398E+00  mag=     1.0000
       N       E                     dE             d eps       ncg     rms          rms(c)
DAV:   1     0.448164615169E+03    0.34690E-03   -0.54527E-01  4352   0.172E+00    0.143E-01
RMM:   2     0.448161993848E+03   -0.26213E-02   -0.24173E-02  4967   0.355E-01    0.134E-01
RMM:   3     0.448162129333E+03    0.13549E-03   -0.15601E-03  5310   0.102E-01    0.105E-01
RMM:   4     0.448161963042E+03   -0.16629E-03   -0.39787E-04  4638   0.440E-02    0.639E-02
RMM:   5     0.448161596074E+03   -0.36697E-03   -0.32554E-04  4336   0.452E-02    0.606E-02
RMM:   6     0.448161198101E+03   -0.39797E-03   -0.35529E-04  4445   0.471E-02    0.425E-02
RMM:   7     0.448161024286E+03   -0.17381E-03   -0.93703E-05  4214   0.224E-02    0.420E-02
RMM:   8     0.448161072530E+03    0.48243E-04   -0.66941E-06  2760   0.758E-03    0.418E-02
RMM:   9     0.448161146307E+03    0.73778E-04   -0.55998E-06  2435   0.692E-03    0.424E-02
RMM:  10     0.448160801166E+03   -0.34514E-03   -0.11644E-04  3812   0.309E-02    0.431E-02
RMM:  11     0.448160971884E+03    0.17072E-03   -0.17638E-05  2719   0.132E-02    0.419E-02
RMM:  12     0.448160937364E+03   -0.34520E-04   -0.14640E-06  2195   0.428E-03    0.418E-02
RMM:  13     0.448160170743E+03   -0.76662E-03   -0.58880E-04  4259   0.666E-02    0.505E-02
RMM:  14     0.448162100665E+03    0.19299E-02   -0.28206E-03  4257   0.147E-01    0.509E-02
RMM:  15     0.448162087910E+03   -0.12755E-04   -0.51201E-04  4409   0.627E-02    0.366E-02
RMM:  16     0.448161478796E+03   -0.60911E-03   -0.40164E-04  4218   0.583E-02    0.362E-02
RMM:  17     0.448161279653E+03   -0.19914E-03   -0.89648E-05  4020   0.276E-02    0.352E-02
RMM:  18     0.448160767093E+03   -0.51256E-03   -0.41222E-04  4184   0.539E-02    0.405E-02
RMM:  19     0.448160787205E+03    0.20112E-04   -0.21023E-05  2784   0.132E-02    0.386E-02
RMM:  20     0.448160241481E+03   -0.54572E-03   -0.41768E-04  4176   0.527E-02    0.464E-02
RMM:  21     0.448159838764E+03   -0.40272E-03   -0.21974E-04  4035   0.398E-02    0.518E-02
RMM:  22     0.448159677039E+03   -0.16173E-03   -0.51629E-05  3602   0.169E-02    0.518E-02
RMM:  23     0.448160103361E+03    0.42632E-03   -0.19787E-04  3932   0.411E-02    0.481E-02
RMM:  24     0.448160265012E+03    0.16165E-03   -0.60240E-05  3600   0.215E-02    0.463E-02
RMM:  25     0.448160727110E+03    0.46210E-03   -0.34185E-04  4072   0.490E-02    0.439E-02
RMM:  26     0.448161055685E+03    0.32857E-03   -0.37367E-04  4217   0.527E-02    0.406E-02
RMM:  27     0.448160940254E+03   -0.11543E-03   -0.13714E-04  3921   0.298E-02    0.366E-02
RMM:  28     0.448160839564E+03   -0.10069E-03   -0.38292E-05  3432   0.161E-02    0.366E-02
RMM:  29     0.448160897100E+03    0.57536E-04   -0.21108E-05  2776   0.151E-02    0.373E-02
RMM:  30     0.448160917422E+03    0.20322E-04   -0.45074E-06  2200   0.504E-03    0.376E-02
RMM:  31     0.448161296937E+03    0.37951E-03   -0.23288E-04  3936   0.421E-02    0.360E-02
RMM:  32     0.448161287859E+03   -0.90779E-05   -0.22791E-05  2875   0.138E-02
   4 F= 0.44816129E+03 E0= 0.44817832E+03  d E =-.297244E-02  mag=     1.0000
       N       E                     dE             d eps       ncg     rms          rms(c)
DAV:   1     0.448161660175E+03    0.36324E-03   -0.78110E-04  5512   0.126E-01    0.340E-02
RMM:   2     0.448161474859E+03   -0.18532E-03   -0.15719E-04  4020   0.333E-02    0.287E-02
RMM:   3     0.448161390259E+03   -0.84599E-04   -0.30743E-05  2973   0.135E-02    0.273E-02
RMM:   4     0.448161371461E+03   -0.18799E-04   -0.53891E-06  2239   0.548E-03    0.260E-02
RMM:   5     0.448161347156E+03   -0.24305E-04   -0.37186E-06  2119   0.457E-03    0.261E-02
RMM:   6     0.448161415949E+03    0.68794E-04   -0.77912E-06  2277   0.893E-03    0.270E-02
RMM:   7     0.448161441886E+03    0.25937E-04   -0.33521E-06  2017   0.411E-03    0.269E-02
RMM:   8     0.448161858427E+03    0.41654E-03   -0.39900E-04  4095   0.546E-02    0.268E-02
RMM:   9     0.448161908871E+03    0.50445E-04   -0.89634E-05  3706   0.260E-02    0.226E-02
RMM:  10     0.448162198705E+03    0.28983E-03   -0.52753E-04  4202   0.612E-02    0.238E-02
RMM:  11     0.448162149034E+03   -0.49671E-04   -0.60952E-05  3510   0.208E-02    0.176E-02
RMM:  12     0.448162123697E+03   -0.25337E-04   -0.37509E-05  3341   0.143E-02    0.162E-02
RMM:  13     0.448162078596E+03   -0.45101E-04   -0.18079E-05  2768   0.112E-02    0.163E-02
RMM:  14     0.448162111401E+03    0.32805E-04   -0.89483E-06  2406   0.995E-03    0.166E-02
RMM:  15     0.448162027765E+03   -0.83636E-04   -0.64525E-05  3515   0.245E-02    0.181E-02
RMM:  16     0.448162002072E+03   -0.25693E-04   -0.88260E-06  2363   0.801E-03    0.177E-02
RMM:  17     0.448162020976E+03    0.18904E-04   -0.65297E-06  2206   0.823E-03    0.172E-02
RMM:  18     0.448162098245E+03    0.77269E-04   -0.78001E-05  3601   0.240E-02    0.171E-02
RMM:  19     0.448162093352E+03   -0.48923E-05   -0.61856E-06  2322   0.762E-03
   5 F= 0.44816209E+03 E0= 0.44817909E+03  d E =-.216695E-02  mag=     1.0000
