       N       E                     dE             d eps       ncg     rms          rms(c)
DAV:   1     0.450010392845E+04    0.45001E+04   -0.14276E+05  4232   0.132E+03
DAV:   2     0.620625063738E+03   -0.38795E+04   -0.36812E+04  4224   0.436E+02
DAV:   3     0.855903595994E+02   -0.53503E+03   -0.49894E+03  4400   0.171E+02
DAV:   4     0.590972400823E+02   -0.26493E+02   -0.25833E+02  4768   0.407E+01
DAV:   5     0.585309946746E+02   -0.56625E+00   -0.56290E+00  4720   0.535E+00    0.453E+01
RMM:   6     0.772151489567E+02    0.18684E+02   -0.25765E+02  4279   0.348E+01    0.209E+01
RMM:   7     0.833908431612E+02    0.61757E+01   -0.15883E+01  4346   0.933E+00    0.998E+00
RMM:   8     0.802961877618E+02   -0.30947E+01   -0.24124E+00  4480   0.468E+00    0.238E+00
RMM:   9     0.801182645685E+02   -0.17792E+00   -0.41603E-01  4544   0.164E+00    0.625E-01
RMM:  10     0.801139866654E+02   -0.42779E-02   -0.21954E-02  4937   0.336E-01    0.313E-01
RMM:  11     0.801110777499E+02   -0.29089E-02   -0.62203E-03  4539   0.194E-01    0.865E-02
RMM:  12     0.801107247614E+02   -0.35299E-03   -0.49966E-04  4973   0.498E-02    0.365E-02
RMM:  13     0.801106958520E+02   -0.28909E-04   -0.84458E-05  4236   0.182E-02    0.210E-02
RMM:  14     0.801106702319E+02   -0.25620E-04   -0.38130E-05  3418   0.135E-02    0.128E-02
RMM:  15     0.801106676125E+02   -0.26194E-05   -0.79739E-06  2536   0.690E-03
   1 F= 0.80110668E+02 E0= 0.80137280E+02  d E =-.532247E-01  mag=     1.0000
