 running on   16 nodes
 distr:  one band on    2 nodes,    8 groups
 vasp.5.2.2 15Apr09 complex 
 POSCAR found :  3 types and   56 ions
 LDA part: xc-table for Pade appr. of Perdew
 POSCAR, INCAR and KPOINTS ok, starting setup
 WARNING: small aliasing (wrap around) errors must be expected
 FFT: planning ...(           1 )
 reading WAVECAR
 WARNING: random wavefunctions but no delay for mixing, default for NELMDL
 entering main loop
       N       E                     dE             d eps       ncg     rms          rms(c)
DAV:   1     0.447315976958E+04    0.44732E+04   -0.14340E+05  4232   0.133E+03
DAV:   2     0.580216143705E+03   -0.38929E+04   -0.36972E+04  4224   0.435E+02
DAV:   3     0.444022289451E+02   -0.53581E+03   -0.49827E+03  4408   0.171E+02
DAV:   4     0.184784625625E+02   -0.25924E+02   -0.25373E+02  4712   0.407E+01
DAV:   5     0.179517530044E+02   -0.52671E+00   -0.52350E+00  4696   0.516E+00    0.433E+01
RMM:   6     0.341144866577E+02    0.16163E+02   -0.22468E+02  4280   0.326E+01    0.194E+01
RMM:   7     0.390744547498E+02    0.49600E+01   -0.13880E+01  4375   0.863E+00    0.984E+00
RMM:   8     0.361960708553E+02   -0.28784E+01   -0.21167E+00  4528   0.438E+00    0.272E+00
RMM:   9     0.359764618582E+02   -0.21961E+00   -0.48358E-01  4470   0.178E+00    0.624E-01
RMM:  10     0.359722762207E+02   -0.41856E-02   -0.27104E-02  4819   0.368E-01    0.142E-01
RMM:  11     0.359718741351E+02   -0.40209E-03   -0.25795E-03  4835   0.134E-01    0.490E-02
RMM:  12     0.359718324191E+02   -0.41716E-04   -0.29025E-04  5014   0.321E-02    0.262E-02
RMM:  13     0.359717904312E+02   -0.41988E-04   -0.11113E-04  4416   0.215E-02    0.125E-02
RMM:  14     0.359717858294E+02   -0.46019E-05   -0.85244E-06  2667   0.674E-03
   1 F= 0.35971786E+02 E0= 0.35971786E+02  d E =-.204945E-12  mag=     0.0000
 writing wavefunctions

 ----------------------------------------------------------------------------- 
|                                                                             |
|           W    W    AA    RRRRR   N    N  II  N    N   GGGG   !!!           |
|           W    W   A  A   R    R  NN   N  II  NN   N  G    G  !!!           |
|           W    W  A    A  R    R  N N  N  II  N N  N  G       !!!           |
|           W WW W  AAAAAA  RRRRR   N  N N  II  N  N N  G  GGG   !            |
|           WW  WW  A    A  R   R   N   NN  II  N   NN  G    G                |
|           W    W  A    A  R    R  N    N  II  N    N   GGGG   !!!           |
|                                                                             |
|      The partial DOS and the PROCAR file are not evaluated for NPAR/=1      |
|      please rerun with NPAR=1                                               |
|                                                                             |
 ----------------------------------------------------------------------------- 

